# vtk DataFile Version 5.1
vtk output
ASCII
DATASET POLYDATA
POINTS 6431 float
0.766286 -0.750036 -0.011355 0.755347 -0.745462 -0.00830097 0.748835 -0.750533 -0.00527803 
0.748883 -0.76618 -0.00278802 0.769617 -0.765045 -0.0100957 0.75414 -0.733751 -0.00966497 
0.733402 -0.734869 -0.00236799 0.7346 -0.749913 -0.000485181 0.499966 -0.250011 -0.00123406 
0.48644 -0.249246 0.00312489 0.485589 -0.265407 0.00590203 0.500807 -0.265284 0.000845628 
0.498893 -0.234917 -0.00308457 0.485646 -0.234043 0.00117499 0.735199 -0.249621 -0.0136303 
0.746779 -0.249796 -0.0192831 0.749842 -0.265317 -0.0183601 0.735264 -0.265182 -0.0111972 
0.514233 -0.250617 -0.00586302 0.520762 -0.245564 -0.00879717 0.519602 -0.233792 -0.0101052 
0.745618 -0.234787 -0.0210917 0.734076 -0.234612 -0.0154574 0.514812 -0.375412 0.0137069 
0.501673 -0.374272 0.0180977 0.501044 -0.390479 0.0209658 0.516061 -0.390438 0.0157275 
0.496398 -0.499805 0.119056 0.495812 -0.484586 0.118381 0.5169 -0.484346 0.112082 
0.517348 -0.499506 0.113176 0.499673 -0.390669 0.109603 0.498826 -0.375216 0.10845 
0.511886 -0.37493 0.103912 0.514718 -0.390483 0.104385 0.623767 -0.500609 -0.00312451 
0.610553 -0.499486 0.00111901 0.609941 -0.515685 0.00403657 0.625029 -0.51562 -0.00103459 
0.98852 -0.624389 -0.102319 0.999224 -0.625029 -0.105542 0.999527 -0.608836 -0.107818 
0.985409 -0.609314 -0.10341 0.376057 0 0.000263608 0.376878 -0.0148785 0.00269488 
0.389983 -0.015601 -0.00159153 0.38889 0 -0.00384057 0.892268 -0.374298 -0.106545 
0.879311 -0.374278 -0.10254 0.880477 -0.386004 -0.101229 0.891571 -0.39053 -0.104016 
0.516765 -0.515149 0.114506 0.510227 -0.519943 0.116568 0.499097 -0.515442 0.119246 
0.613318 -0.624446 0.0210539 0.626143 -0.624494 0.0167301 0.625026 -0.609362 0.0146025 
0.609959 -0.60943 0.0197021 0.488864 -0.374185 0.0225457 0.490113 -0.385871 0.0240204 
0.485969 -0.374531 0.112825 0.485467 -0.390166 0.11441 0.123764 -0.125966 0.120599 
0.129928 -0.120682 0.115282 0.126193 -0.108773 0.11369 0.116213 -0.10386 0.117712 
0.110326 -0.109025 0.123028 0.110627 -0.124627 0.128915 0.376621 -0.108661 0.0180329 
0.375984 -0.124872 0.0208786 0.391055 -0.124809 0.0157629 0.389814 -0.109782 0.0137453 
0.369136 0 0.11603 0.390028 0 0.107929 0.390746 -0.0158547 0.109525 
0.370027 -0.0161212 0.117447 0.751505 -0.889967 0.0174885 0.750309 -0.874867 0.0152857 
0.735388 -0.874858 0.0207415 0.738775 -0.889842 0.0221224 0.74899 -0.859876 0.0131121 
0.735946 -0.858679 0.0176704 0.749196 -0.37537 -0.000609729 0.750406 -0.390391 0.00115605 
0.730548 -0.390668 0.010545 0.729231 -0.375974 0.00894394 0.5005 -0.359137 0.0159092 
0.514713 -0.35978 0.0110693 0.498286 -0.359847 0.107185 0.510812 -0.360288 0.102884 
0.728317 -0.363957 0.00774725 0.734963 -0.359025 0.00380042 0.74957 -0.359161 -0.00332621 
0.875669 -0.983676 -0.0116818 0.864705 -0.979669 -0.00845626 0.858144 -0.984317 -0.00528052 
0.858996 -1 0.00324002 0.874588 -1 0.000203631 0.879002 -0.995033 -0.0109762 
0.871796 -0.749819 -0.00367345 0.891198 -0.749722 -0.0140172 0.891399 -0.765218 -0.0113618 
0.884887 -0.77019 -0.00705132 0.875144 -0.765372 -0.00284254 0.639308 -0.516232 -0.00572565 
0.645793 -0.511113 -0.00876801 0.644537 -0.499436 -0.0102879 0.870495 -0.734813 -0.00543229 
0.890125 -0.734813 -0.0158984 1.00036 -0.641148 -0.103717 0.989594 -0.636263 -0.101022 
0.868456 -0.614167 -0.0240776 0.869527 -0.626154 -0.022672 0.85812 -0.625495 -0.0169078 
0.858492 -0.609296 -0.0197442 0.870623 -0.641023 -0.0208091 0.859223 -0.640458 -0.0150333 
0.363492 0 0.00433131 0.364153 -0.0144606 0.00674974 0.983713 -0.392872 -0.126881 
0.979486 -0.375409 -0.12822 0.980211 -0.375539 -0.133389 0.983562 -0.3902 -0.132521 
0.876084 -0.359237 -0.103637 0.891409 -0.359081 -0.1084 0.977637 -0.360215 -0.129866 
0.979498 -0.359322 -0.135359 0.857731 -0.250504 -0.11301 0.8586 -0.265686 -0.111203 
0.879766 -0.264569 -0.117824 0.878641 -0.249944 -0.119469 0.748964 -0.015726 -0.112279 
0.747974 0 -0.114048 0.73436 0 -0.110011 0.735172 -0.0153131 -0.108202 
0.879068 -0.140052 -0.134534 0.875821 -0.124978 -0.135598 0.864711 -0.120442 -0.132863 
0.858227 -0.125528 -0.130182 0.858254 -0.141161 -0.127998 0.890863 0 -0.139891 
0.890643 -0.0153129 -0.137502 0.884136 -0.0201746 -0.132921 0.875096 -0.0154762 -0.128287 
0.872336 0 -0.129103 0.770164 -0.0146875 -0.118771 0.769737 0 -0.120623 
0.854146 -0.0162353 -0.115993 0.852876 0 -0.117853 0.875564 -0.234498 -0.120629 
0.864522 -0.229922 -0.117881 0.858001 -0.234982 -0.115203 0.764428 -0.875549 0.0102408 
0.764547 -0.89116 0.0129269 0.770918 -0.870437 0.00696398 0.769597 -0.858791 0.00538281 
0.852717 -0.754834 0.00693702 0.859186 -0.749832 0.00279821 0.853791 -0.766819 0.00835003 
0.625476 -0.640729 0.0194904 0.614539 -0.636147 0.0224687 0.639069 -0.625492 0.0125209 
0.639276 -0.609972 0.0098915 0.640123 -0.640587 0.0145217 0.267602 -0.376113 0.139186 
0.267616 -0.375288 0.12401 0.259669 -0.361068 0.122604 0.252748 -0.355571 0.127703 
0.25213 -0.356396 0.138082 0.263108 -0.361785 0.14485 0.485479 -0.359168 0.0211474 
0.485544 -0.359348 0.111504 0.271823 -0.369996 0.115674 0.268998 -0.359459 0.112821 
0.271859 -0.38494 0.128325 0.272111 -0.384852 0.135788 0.14415 -0.140128 0.113215 
0.139827 -0.125577 0.111225 0.123762 -0.141538 0.126571 0.375676 -0.124906 0.126648 
0.376294 -0.140198 0.127729 0.355529 -0.140614 0.134613 0.354569 -0.125891 0.133511 
0.379327 -0.139874 0.0221798 0.392179 -0.139943 0.0178371 0.36501 -0.120279 0.0238511 
0.363769 -0.108592 0.0223757 0.353868 -0.113767 0.132669 0.360486 -0.108915 0.130121 
0.374804 -0.109389 0.125521 0.550954 -0.499359 0.0214093 0.563786 -0.49944 0.0170187 
0.562653 -0.484318 0.0149307 0.547607 -0.484371 0.0201031 0.566595 -0.436863 0.00583033 
0.545859 -0.438006 0.0131333 0.547106 -0.453031 0.0151584 0.561344 -0.453653 0.0103734 
0.567841 -0.448549 0.00731041 0.954071 -0.937242 -0.0462404 0.941104 -0.937458 -0.0417132 
0.942333 -0.952043 -0.0399242 0.955051 -0.952477 -0.0442741 1.00511 -0.993704 -0.0554618 
1.00381 -0.983257 -0.0565926 0.982899 -0.983958 -0.049204 0.982652 -0.995511 -0.0473681 
0.999363 -1 -0.0472614 0.933345 -0.93761 -0.00521801 0.952683 -0.937582 -0.0157305 
0.952709 -0.953036 -0.0130737 0.9463 -0.958002 -0.00874661 0.936473 -0.95309 -0.00426692 
0.548278 -0.0618976 -0.0449036 0.561608 -0.0629491 -0.048912 0.561659 -0.0472078 -0.0511629 
0.547247 -0.0466737 -0.0468178 0.517363 0 -0.0443744 0.505241 0 -0.040599 
0.505531 -0.0110854 -0.0390206 0.516545 -0.0156075 -0.0417927 0.563176 -0.515638 0.0199421 
0.552215 -0.511034 0.0229328 0.4386 -0.499471 0.0635131 0.452276 -0.500399 0.058194 
0.458795 -0.495192 0.0545003 0.457306 -0.483756 0.0528141 0.436922 -0.484683 0.0610804 
0.558512 -0.0469154 0.0415045 0.561472 -0.0624401 0.0423444 0.547861 -0.0621454 0.0486413 
0.546537 -0.047012 0.0470729 1.00818 -0.625314 -0.108329 1.00733 -0.609102 -0.110258 
0.702181 -0.750438 0.0108609 0.68836 -0.749776 0.015888 0.689514 -0.764862 0.0182056 
0.702341 -0.766043 0.01362 0.692227 -0.795948 0.0228388 0.693537 -0.807604 0.0244307 
0.704339 -0.812271 0.0211518 0.704881 -0.796106 0.0180452 0.699347 -0.500004 0.0420299 
0.687649 -0.499844 0.047473 0.686468 -0.484811 0.0457631 0.698113 -0.48536 0.0404035 
0.687141 -0.265388 0.0124426 0.684022 -0.249912 0.0115206 0.703807 -0.249645 0.00177296 
0.7039 -0.265219 0.00419458 0.697258 -0.27022 0.00824536 0.814526 -0.936755 0.00258541 
0.801874 -0.936296 0.00716653 0.802899 -0.948192 0.00887136 0.81378 -0.952876 0.00570626 
1.00023 -0.812057 -0.0653613 0.979221 -0.813548 -0.0530687 0.97811 -0.801532 -0.054569 
0.984582 -0.796577 -0.0591555 0.99684 -0.796721 -0.0661489 0.750618 -0.812523 0.00412282 
0.765173 -0.812437 -0.000977187 0.764097 -0.797354 -0.00302337 0.751202 -0.796339 0.00124552 
0.750746 -0.515626 -0.0421903 0.751449 -0.499384 -0.0447926 0.738522 -0.499354 -0.0406757 
0.739711 -0.511069 -0.039328 0.688551 -0.687358 0.00547002 0.691868 -0.702377 0.00669483 
0.704727 -0.702437 0.00236163 0.70363 -0.687286 0.000366469 0.816628 -0.561867 -0.0563577 
0.813346 -0.546826 -0.0575034 0.802307 -0.54228 -0.0546379 0.795812 -0.547365 -0.0518275 
0.795888 -0.562985 -0.0495702 0.79699 -0.51537 -0.00286767 0.79368 -0.499803 -0.00361737 
0.813187 -0.499685 -0.013869 0.813266 -0.515218 -0.0114301 0.806662 -0.520196 -0.00717058 
0.764757 -0.500441 -0.0488506 0.765921 -0.515508 -0.0470185 0.483232 -0.188022 -0.00520946 
0.483289 -0.203664 -0.00269092 0.504043 -0.20251 -0.00990914 0.5007 -0.187509 -0.0112104 
0.489726 -0.182915 -0.00823784 0.75044 -0.484159 -0.0466339 0.735243 -0.484326 -0.0417876 
0.74842 -0.4536 -0.0503027 0.748665 -0.43809 -0.0525683 0.734328 -0.437525 -0.048098 
0.735102 -0.452837 -0.046184 0.744155 -0.317088 -0.0073349 0.734038 -0.312256 -0.00313771 
0.730923 -0.296776 -0.0040619 0.750685 -0.296544 -0.0138287 0.750777 -0.31209 -0.0114058 
0.812175 -0.484772 -0.0157164 0.792392 -0.484787 -0.00533636 0.764816 -0.484699 -0.0511103 
0.755196 -0.433026 -0.055355 0.769295 -0.453057 -0.0570041 0.766213 -0.437613 -0.0582041 
0.796653 -0.437343 -0.0151355 0.807999 -0.437917 -0.0209958 0.809287 -0.452933 -0.0192773 
0.796736 -0.452928 -0.012694 0.765244 -0.31226 -0.0187779 0.762146 -0.296773 -0.0196551 
0.750069 -0.0154174 -0.059174 0.743588 -0.0203418 -0.0548664 0.733775 -0.0154963 -0.0503574 
0.730811 0 -0.0511651 0.750298 0 -0.0614732 0.761146 0 -0.0672137 
0.762557 -0.0153633 -0.0658126 0.765361 -0.0623617 -0.0597563 0.758896 -0.067314 -0.0554529 
0.749079 -0.0624145 -0.0509504 0.745996 -0.0469197 -0.0518196 0.765392 -0.0468897 -0.062304 
0.812715 -0.187175 -0.0651499 0.81228 -0.203144 -0.0622759 0.79289 -0.203161 -0.0517716 
0.791577 -0.188537 -0.0534487 0.797416 -0.995476 0.0194837 0.812151 -1 0.0189053 
0.811845 -0.984043 0.0118678 0.797922 -0.983059 0.0169465 0.766109 -0.749714 0.0481219 
0.766093 -0.765318 0.0503314 0.759403 -0.770328 0.0540649 0.749082 -0.765542 0.0578131 
0.746035 -0.75008 0.0570081 0.563466 -0.687335 0.0514016 0.552825 -0.682563 0.0549457 
[...]
POINT_DATA 6431
SCALARS mean float
LOOKUP_TABLE default
0.699847 0.705832 0.709104 0.708288 0.699981 0.705536 0.713232 0.713741 0.741948 
0.745094 0.747146 0.742696 0.741261 0.744454 0.373291 0.380847 0.37516 0.370436 
0.739169 0.736076 0.735312 0.385487 0.378762 0.751858 0.755845 0.759041 0.753323 
0.31531 0.311911 0.313499 0.316164 0.306041 0.308333 0.306203 0.304089 0.729736 
0.73361 0.735939 0.731616 0.558856 0.533426 0.528028 0.55793 0.758901 0.759323 
0.756019 0.755444 0.64274 0.650196 0.64946 0.642846 0.318982 0.318772 0.317151 
0.752061 0.746488 0.744992 0.750123 0.762208 0.763562 0.312011 0.308508 0.899125 
0.883679 0.87755 0.888273 0.905178 0.904798 0.761851 0.763776 0.759535 0.759006 
0.332419 0.339586 0.34025 0.332916 0.709193 0.711951 0.719528 0.718772 0.71382 
0.720205 0.343786 0.340616 0.334069 0.336594 0.754829 0.749604 0.310729 0.308682 
0.338992 0.344495 0.347573 0.599928 0.609009 0.593229 0.501251 0.485702 0.539889 
0.392783 0.394987 0.397855 0.398005 0.397388 0.729009 0.724905 0.723314 0.38928 
0.393609 0.538858 0.560247 0.377646 0.379217 0.374142 0.372985 0.380241 0.375478 
0.762675 0.763006 0.499322 0.507483 0.533645 0.531371 0.651716 0.644196 0.511728 
0.538557 0.666285 0.664303 0.6578 0.65989 0.69629 0.696226 0.69781 0.697798 
0.674309 0.67576 0.678991 0.680711 0.678954 0.59596 0.595011 0.585203 0.574359 
0.574982 0.694268 0.693695 0.554251 0.555629 0.663142 0.668781 0.670021 0.705539 
0.701945 0.70282 0.7036 0.392642 0.391696 0.39632 0.749096 0.753907 0.742805 
0.742133 0.744388 0.0479286 0.60484 0.650056 0.487822 0.0219947 -0.225679 0.759582 
0.316814 0.847533 0.863776 0.527877 0.136643 0.883259 0.874877 0.898893 0.320741 
0.319746 0.309907 0.31421 0.76492 0.760838 0.766984 0.766712 0.315203 0.316447 
0.322113 0.757721 0.750465 0.749833 0.755724 0.743313 0.749873 0.751864 0.74845 
0.744514 0.615786 0.622215 0.617794 0.609412 0.511639 0.554513 0.565034 0.506949 
0.475775 0.446746 0.443036 0.447038 0.449607 0.449538 0.723664 0.721817 0.722425 
0.723747 0.72784 0.730755 0.73061 0.72802 0.753384 0.759028 0.821037 0.815129 
0.805871 0.801371 0.815118 0.394084 0.391727 0.387893 0.38959 0.497629 0.493477 
0.731574 0.737207 0.739057 0.731609 0.743854 0.744659 0.73659 0.73423 0.323339 
0.320071 0.318314 0.321304 0.350876 0.35684 0.36171 0.358087 0.353083 0.667299 
0.673944 0.665595 0.658414 0.434213 0.425049 0.425325 0.430586 0.436408 0.709964 
0.703531 0.7029 0.709173 0.692975 0.69261 0.696428 0.69723 0.72838 0.729313 
0.723186 0.72309 0.673545 0.673403 0.678592 0.681821 0.67993 0.348536 0.348534 
0.356093 0.356432 0.351687 0.6887 0.688716 0.742505 0.743469 0.73736 0.736537 
0.740562 0.692549 0.697026 0.693024 0.694428 0.696929 0.696794 0.356642 0.352946 
0.357738 0.366179 0.364634 0.358415 0.348566 0.688873 0.691776 0.687975 0.687256 
0.356429 0.362578 0.361458 0.355707 0.368015 0.372479 0.476941 0.469638 0.462678 
0.463415 0.474357 0.483266 0.4831 0.476167 0.468659 0.462777 0.466446 0.478273 
0.452793 0.443276 0.431865 0.43819 0.477785 0.436084 0.595882 0.609384 0.402805 
0.406818 0.410421 0.410999 0.406366 0.805062 0.81549 0.827958 0.834623 0.8164 
0.84628 0.835368 0.854484 0.859801 0.330893 0.326683 0.328876 0.33164 0.322981 
0.324975 0.726035 0.725378 0.735494 0.388615 0.382108 0.380216 0.386775 0.400806 
0.397616 0.377584 0.385136 0.752023 0.745715 0.744788 0.747932 0.751181 0.754961 
0.757722 0.759698 0.755831 0.804026 0.811982 0.815794 0.80914 0.89997 0.804764 
0.805573 0.801127 0.79956 0.206776 0.202311 0.228013 0.233473 0.75616 0.75411 
0.754446 0.755372 0.750824 0.750461 0.753443 0.795509 0.798438 0.788721 0.785578 
0.789748 0.80055 0.80822 0.342258 0.337513 0.333732 0.334681 0.342049 0.849075 
0.778932 0.751652 0.847294 0.304747 0.302812 0.302569 0.302918 0.302917 0.304409 
0.303261 0.30107 0.301768 0.74588 0.74616 0.739842 0.744001 0.748292 0.307956 
0.306613 0.305598 0.307618 0.305327 0.303954 0.625732 0.618568 0.43212 0.428709 
0.427245 0.430646 0.442471 0.439255 0.629182 0.628812 0.623675 0.617066 0.617086 
0.575081 0.572136 0.59462 0.59566 0.435058 0.430309 0.635268 0.634475 0.651072 
0.641213 0.641837 0.649189 0.652957 0.42085 0.421551 0.428206 0.436598 0.43516 
0.525518 0.527566 0.554556 0.549546 0.523733 0.593965 0.608869 0.609744 0.595044 
0.429492 0.433129 0.440072 0.439716 0.417873 0.418188 0.426108 0.425074 0.412573 
0.41479 0.432236 0.420499 0.521353 0.550987 0.416551 0.417601 0.748265 0.745773 
0.741853 0.740546 0.747056 0.758906 0.755329 0.754838 0.759609 0.749921 0.752384 
0.608788 0.611323 0.623913 0.629373 0.627339 0.417332 0.412048 0.416276 0.427182 
0.425722 0.621651 0.610722 0.614246 0.622949 0.504112 0.503307 0.47674 0.48188 
0.486372 0.607368 0.593469 0.609565 0.597649 0.589573 0.590873 0.392372 0.395629 
0.410443 0.408477 0.486834 0.507231 0.592075 0.606774 0.619341 0.619982 0.434376 
0.418275 0.426369 0.621188 0.396575 0.404792 0.412561 0.712301 0.712936 0.71511 
0.714929 0.714603 0.715666 0.715365 0.713877 0.721764 0.724419 0.719432 0.719709 
0.721264 0.720347 0.71904 0.722649 0.722815 0.719994 0.720061 0.713533 0.71317 
0.716409 0.570008 0.582683 0.578411 0.558314 0.560159 0.570762 0.584726 0.347623 
0.347775 0.341452 0.341215 0.330054 0.326389 0.326873 0.329613 0.833437 0.821906 
0.811065 0.806857 0.824778 0.747864 0.737396 0.735699 0.739197 0.742858 0.743881 
0.314755 0.315974 0.318415 0.318666 0.325117 0.328229 0.32564 0.35056 0.343093 
0.332048 0.745163 0.742107 0.738859 0.820333 0.829068 0.839657 0.844198 0.826971 
0.80983 0.812783 0.800255 0.795547 0.800865 0.825608 0.832975 0.307659 0.306293 
0.306062 0.854648 0.843094 0.832259 0.304694 0.900101 0.88758 0.884518 0.9089 
0.917741 0.919487 0.908968 0.900277 0.915616 0.349271 0.348756 0.343338 0.343532 
0.755873 0.761425 0.761473 0.330657 0.331328 0.339118 0.338574 0.336582 0.389847 
0.386483 0.37769 0.375276 0.379029 0.384454 0.382185 0.395416 0.394208 0.385344 
0.388935 0.496341 0.685973 0.745201 0.633692 0.498369 0.489733 0.564578 0.844003 
0.85428 0.789676 0.7185 0.854211 0.834475 0.82998 0.411043 0.416257 0.424129 
0.405491 0.873624 0.84005 0.822732 0.782638 0.812437 0.867166 0.436608 0.445128 
0.450184 0.44096 0.414177 0.422691 0.429067 0.426824 0.423917 0.422748 0.42788 
0.710348 0.717348 0.722655 0.722085 0.745709 0.747798 0.307192 0.306569 0.30527 
0.305364 0.314954 0.318352 0.317434 0.314365 0.317635 0.314974 0.319518 0.315695 
0.305044 0.307071 0.339789 0.340626 0.332789 0.332251 0.321619 0.317267 0.315789 
0.319985 0.311439 0.3146 0.311984 0.35346 0.34867 0.318727 0.324387 0.311826 
0.311792 0.315015 0.652139 0.66141 0.680414 0.677023 0.678896 0.687241 0.685812 
0.673277 0.679572 0.668054 0.624788 0.633657 0.633965 0.62686 0.63171 0.61784 
0.626613 0.429707 0.42444 0.443713 0.44256 0.437178 0.432431 0.432095 0.60812 
0.617934 0.624831 0.623034 0.609384 0.65117 0.655068 0.655 0.649227 0.65527 
0.655302 0.648688 0.649879 0.570593 0.587 0.597112 0.426529 0.424473 0.424395 
0.63637 0.655378 0.649074 0.703448 0.680125 0.685811 0.689323 0.66133 0.661129 
0.731599 0.730693 0.734153 0.727158 0.726721 0.718354 0.717808 0.722554 0.721992 
0.726962 0.731109 0.731268 0.732987 0.733397 0.650262 0.645363 0.640864 0.649338 
0.643239 0.642773 0.649176 0.42097 0.422148 0.416843 0.411797 0.411672 0.424718 
0.419571 0.446155 0.432425 0.439741 0.448555 0.449472 0.443377 0.65463 0.646358 
0.644566 0.38573 0.383297 0.386764 0.389414 0.447686 0.44219 0.382562 0.385313 
0.413101 0.406859 0.407091 0.673318 0.668118 0.667492 0.657484 0.656661 0.361709 
0.360283 0.359825 0.355498 0.350946 0.350854 0.35849 0.679087 0.676227 0.678425 
0.673625 0.673595 0.677845 0.670092 0.671591 0.655352 0.655656 0.655883 0.659656 
0.384656 0.382379 0.379527 0.660278 0.659386 0.65023 0.67337 0.67904 0.674227 
0.67492 0.670128 0.668672 0.377463 0.668611 0.749277 0.746187 0.748181 0.752294 
0.753365 0.703043 0.706844 0.707273 0.703174 0.69165 0.697242 0.731872 0.73142 
0.733376 0.734873 0.735066 0.690166 0.69024 0.693951 0.696505 0.695677 0.706343 
0.703735 0.709352 0.707245 0.70488 0.704997 0.710219 0.713464 0.716231 0.716537 
0.713908 0.706588 0.709213 0.710106 0.710089 0.36314 0.365224 0.358355 0.670514 
0.667233 0.666979 0.674123 0.672973 0.402634 0.410298 0.399535 0.650303 0.654778 
0.653242 0.647103 0.418375 0.431006 0.432508 0.43893 0.447723 0.441214 0.54526 
0.558166 0.547288 0.530211 0.495229 0.502411 0.519814 0.510993 0.646293 0.648084 
0.656348 0.517277 0.509684 0.521623 0.446648 0.453144 0.60058 0.604666 0.618733 
0.624576 0.620221 0.618048 0.607489 0.597104 0.660522 0.659374 0.421082 0.425515 
0.36462 0.430341 0.42523 0.415079 0.419501 0.688685 0.686518 0.686045 0.691486 
0.691364 0.660762 0.454434 0.466103 0.458968 0.447044 0.430121 0.715007 0.712755 
0.718409 0.715157 0.718004 0.714185 0.714958 0.716758 0.71654 0.723112 0.720317 
0.715061 0.71644 0.710588 0.711685 0.711185 0.711594 0.429918 0.436927 0.43663 
0.429665 0.432651 0.429072 0.424709 0.426469 0.408896 0.412304 0.418273 0.422101 
0.415438 0.424709 0.432986 0.430862 0.698211 0.695623 0.695704 0.69859 0.696322 
0.698514 0.419004 0.42061 0.703235 0.703642 0.705509 0.707246 0.706677 0.710267 
0.713097 0.711223 0.710747 0.712999 0.40883 0.402972 0.710729 0.713472 0.670511 
0.672813 0.67512 0.673915 0.686557 0.686109 0.683724 0.684037 0.672185 0.668239 
0.625088 0.620058 0.604848 0.610012 0.676685 0.677156 0.676103 0.672196 0.675915 
0.678824 0.675019 0.676793 0.577848 0.5624 0.57315 0.582938 0.554592 0.564173 
0.528358 0.569864 0.554151 0.495152 0.485309 0.490195 0.499913 0.507381 0.503784 
0.495127 0.496884 0.69414 0.694614 0.50057 0.492884 0.689806 0.687441 0.689504 
0.690761 0.694063 0.47646 0.470805 0.477605 0.588648 0.59276 0.611566 0.600799 
0.591509 0.596325 0.609602 0.665108 0.664814 0.663663 0.468841 0.458342 0.46011 
0.47416 0.684059 0.683867 0.681143 0.681748 0.488834 0.472875 0.682344 0.686959 
0.685836 0.452124 0.437478 0.425123 0.442617 0.45218 0.463249 0.67999 0.678858 
0.674807 0.675724 0.472338 0.463351 0.679483 0.686765 0.415467 0.524379 0.607182 
0.616082 0.704247 0.699362 0.68777 0.693907 0.434 0.433879 0.432578 0.432002 
0.434982 0.43187 0.434544 0.41941 0.414848 0.410903 0.40978 0.416561 0.420741 
0.420396 0.42431 0.425799 0.429916 0.430689 0.414898 0.407053 0.405488 0.430509 
0.355687 0.354282 0.377882 0.380934 0.372949 0.369922 0.842476 0.826361 0.816435 
0.81285 0.41409 0.334834 0.374919 0.368955 0.406031 0.405085 0.87296 0.877871 
0.879751 0.876677 0.384619 0.389333 0.38881 0.358134 0.355678 0.366154 0.373709 
0.853927 0.845441 0.869215 0.377533 0.406053 0.386836 0.335697 0.336079 0.330403 
0.353984 0.354442 0.349726 0.348386 0.322546 0.32048 0.334779 0.336815 0.347867 
0.351895 0.351014 0.345615 0.359604 0.362792 0.36093 0.74269 0.358282 0.358508 
0.377087 0.373431 0.372777 0.371449 0.858893 0.851107 0.86501 0.754164 0.750649 
0.746515 0.7616 0.762959 0.331907 0.327337 0.331071 0.335126 0.340197 0.344709 
0.343682 0.340202 0.322091 0.326996 0.312085 0.315413 0.314796 0.311635 0.309939 
0.308856 0.309061 0.83026 0.838143 0.830142 0.81992 0.815753 0.858171 0.865994 
0.855025 0.844333 0.841499 0.824901 0.832678 0.802252 0.799263 0.850499 0.810748 
0.817182 0.0463444 0.0160234 -0.0267641 -0.000416111 0.686257 0.865751 0.891261 0.875744 
0.690581 0.593134 -0.0384568 -0.0188343 0.0249828 -0.0149409 0.113961 0.145089 0.115262 
0.0769143 -0.0100768 0.0596675 0.0309645 0.137377 0.165809 0.141565 0.10947 -0.113189 
0.837691 0.612994 0.0911751 0.216227 0.224072 0.216063 0.198754 0.171597 0.147876 
0.185861 0.160887 0.815212 0.811439 0.81948 0.822963 0.810606 0.810871 0.795328 
0.793056 0.798282 0.802452 0.786748 0.786404 0.790709 0.793667 0.793987 0.809774 
0.803385 0.802461 0.806476 0.809222 0.804201 0.82487 0.828363 0.82188 0.816474 
0.815759 0.0509846 0.0926607 0.0205297 -0.0490411 0.14641 -0.00768351 0.00924886 -0.0214064 
-0.0238558 0.915631 0.873381 0.913229 0.337434 0.223031 0.107672 0.129344 0.772768 
0.382139 0.339844 0.586883 0.916981 0.896822 0.161359 0.219588 0.215875 0.20693 
0.210829 0.162899 0.146297 0.172247 0.184624 0.204005 0.197656 0.356612 0.822673 
0.817764 0.826866 0.832548 0.805959 0.800395 0.815216 0.820589 0.205069 0.219854 
0.20643 0.188513 0.0609865 0.169188 0.143249 0.232392 0.231054 0.241292 0.24482 
0.24714 0.254462 0.252228 0.226625 0.224183 0.198024 0.176453 0.221677 0.191052 
0.220549 0.241023 0.237831 0.347722 0.341945 0.344035 0.343564 0.335562 0.335336 
0.338583 0.760539 0.757357 0.758047 0.339481 0.345592 0.341365 0.349136 0.3469 
0.335046 0.352857 0.352734 0.350091 0.766348 0.768386 0.769822 0.766409 0.791575 
0.788484 0.787666 0.763945 0.764194 0.837236 0.843721 0.835249 0.826839 0.810729 
0.80778 0.817694 0.794109 0.790798 0.793726 0.803112 0.809234 0.36183 0.366779 
0.367313 0.362899 0.348328 0.346533 0.380698 0.384983 0.37768 0.374359 0.385781 
0.390315 0.764963 0.760287 0.758823 0.766357 0.769079 0.778886 0.771836 0.774911 
0.766527 0.77059 0.448421 0.452798 0.44692 0.449585 0.445537 0.45103 0.450681 
0.443155 0.448271 0.446158 0.773018 0.769551 0.776563 0.780939 0.782768 0.777816 
0.779781 0.461222 0.469847 0.451463 0.451955 0.829316 0.818888 0.673264 0.684661 
0.646334 0.641085 0.356306 0.36023 0.364 0.360795 0.693518 0.700321 0.694179 
0.708583 0.704067 0.719523 0.718373 0.704664 0.710499 0.713666 0.719279 0.698632 
0.69874 0.693217 0.694489 0.74326 0.74761 0.749539 0.750141 0.741279 0.744482 
0.748789 0.74794 0.732251 0.739526 0.733091 0.370598 0.365788 0.377324 0.381082 
0.389883 0.394724 0.389111 0.393356 0.401243 0.733575 0.730012 0.728934 0.738176 
0.371479 0.383957 0.391943 0.411277 0.406726 0.399956 0.40538 0.61421 0.650005 
0.662859 0.659494 0.6234 0.478631 0.445052 0.362167 0.494479 0.336761 0.336048 
0.340245 0.340628 0.777728 0.776615 0.780917 0.780454 0.776428 0.780923 0.754793 
0.760844 0.749154 0.744767 0.742561 0.311542 0.314693 0.310495 0.308778 0.302653 
0.303756 0.621434 0.599366 0.595199 0.615857 0.624392 0.429972 0.42777 0.426155 
0.428757 0.738612 0.7401 0.732871 0.738343 0.520777 0.508174 0.543211 0.561072 
0.559366 0.577834 0.544393 0.576571 0.55411 0.524166 0.632842 0.632307 0.640438 
0.64055 0.632729 0.639895 0.381651 0.387778 0.388115 0.380428 0.38758 0.735788 
0.734666 0.734173 0.735361 0.748533 0.746965 0.760672 0.755469 0.751219 0.748294 
0.729003 0.725607 0.72505 0.731466 0.732397 0.726301 0.726467 0.729373 0.730046 
0.63461 0.635393 0.474792 0.473041 0.457917 0.458681 0.465578 0.505037 0.508183 
0.480491 0.579378 0.542499 0.566015 0.478116 0.482753 0.494567 0.509154 0.49028 
0.507461 0.475749 0.633089 0.63943 0.63904 0.632651 0.646283 0.646399 0.646466 
0.582679 0.55821 0.561625 0.573625 0.588498 0.590505 0.575435 0.571907 0.584739 
0.455014 0.450443 0.449483 0.451378 0.440044 0.442039 0.44143 0.437642 0.435603 
0.335952 0.336044 0.342992 0.343051 0.353767 0.351934 0.344663 0.350128 0.33708 
0.318825 0.316355 0.311462 0.312776 0.316068 0.747215 0.743788 0.772205 0.768738 
0.767269 0.770066 0.30702 0.309723 0.3162 0.304879 0.905745 0.90671 0.847801 
0.845881 0.854807 0.862608 0.865956 0.757683 0.755104 0.754568 0.758795 0.76156 
0.753155 0.756671 0.36075 0.36334 0.368157 0.366556 0.340355 0.332218 0.34627 
0.345653 0.402308 0.402357 0.405097 0.406862 0.406965 0.481012 0.520469 0.479618 
0.472548 0.499413 0.470849 0.567119 0.588979 0.462513 0.716664 0.733034 0.733252 
0.722745 0.70679 0.728621 0.733687 0.572449 0.457058 0.517737 0.615882 0.557961 
0.467811 0.461069 0.430904 0.42131 0.422184 0.42825 0.412613 0.40973 0.418175 
0.420844 0.412725 0.444529 0.453312 0.462302 0.453339 0.721281 0.715928 0.729574 
0.760743 0.75891 0.767372 0.769775 0.77406 0.77513 0.764215 0.756669 0.421031 
0.422284 0.415439 0.415592 0.407939 0.408957 0.330983 0.331978 0.328217 0.340303 
0.33543 0.744942 0.744241 0.752394 0.740683 0.328757 0.331467 0.33563 0.332192 
0.344168 0.342399 0.34022 0.335819 0.311512 0.315048 0.311773 0.308046 0.314929 
0.351406 0.34575 0.335064 0.338324 0.522838 0.604354 0.631942 0.630266 0.658823 
0.662791 0.665871 0.66293 0.40064 0.398866 0.694521 0.69541 0.695791 0.703656 
0.729456 0.702854 0.702147 0.706314 0.709989 0.710698 0.731087 0.736631 0.737993 
0.73363 0.708045 0.70755 0.711698 0.713478 0.699282 0.698755 0.703985 0.707706 
0.700184 0.703732 0.554131 0.549138 0.57368 0.574701 0.549536 0.573546 0.397884 
0.392464 0.387197 0.586981 0.570351 0.573206 0.586948 0.585534 0.538833 0.395245 
0.387688 0.387688 0.395789 0.396377 0.380859 0.364577 0.365569 0.370988 0.376039 
0.3754 0.382451 0.382487 0.370207 0.377972 0.36921 0.368041 0.366513 0.372421 
0.377899 0.370409 0.737744 0.73556 0.740016 0.741606 0.763194 0.721176 0.722257 
0.718049 0.717934 0.728249 0.725914 0.726292 0.727819 0.721531 0.721306 0.725578 
0.521486 0.516328 0.662133 0.656881 0.657534 0.662858 0.658411 0.653904 0.651854 
0.663358 0.373864 0.379013 0.377333 0.371414 0.637078 0.645682 0.651564 0.498057 
0.506792 0.513837 0.570334 0.543106 0.571136 0.660547 0.657383 0.658195 0.664806 
0.664306 0.685564 0.689011 0.688333 0.685632 0.365398 0.360613 0.350267 0.352604 
0.360476 0.668846 0.670436 0.435071 0.441883 0.435834 0.430971 0.436094 0.428763 
0.44012 0.420176 0.424641 0.697579 0.696282 0.699931 0.700361 0.700415 0.699525 
0.697867 0.699043 0.696614 0.697468 0.697883 0.700019 0.696177 0.696315 0.418111 
0.410222 0.407141 0.414129 0.422435 0.430216 0.42428 0.699458 0.697502 0.69724 
0.699867 0.695657 0.694788 0.674788 0.673185 0.676847 0.681657 0.680796 0.679478 
0.665406 0.670393 0.67584 0.673854 0.67267 0.671945 0.673033 0.610528 0.610946 
0.574126 0.552427 0.56919 0.554809 0.545541 0.513857 0.494409 0.502615 0.524222 
0.528181 0.550683 0.542936 0.522807 0.695265 0.694591 0.691958 0.694534 0.694002 
0.691227 0.694129 0.541134 0.553737 0.539888 0.668014 0.670559 0.66979 0.666156 
0.620711 0.611065 0.59526 0.603941 0.597882 0.591256 0.653989 0.652507 0.655888 
0.661628 0.658222 0.688138 0.691315 0.689543 0.686828 0.672014 0.691051 0.694021 
0.694652 0.693503 0.690494 0.684284 0.685259 0.685929 0.685064 0.698571 0.693196 
0.437321 0.434429 0.434742 0.437846 0.440427 0.439407 0.440844 0.711087 0.395642 
0.401105 0.401307 0.425799 0.430671 0.43147 0.429267 0.423975 0.362512 0.356652 
0.359872 0.367326 0.360802 0.351572 0.368087 0.766853 0.776927 0.778426 0.771121 
0.707251 0.476484 0.493051 0.643155 0.391915 0.416285 0.404243 0.402306 0.405089 
0.39631 0.396058 0.770288 0.761895 0.759267 0.766103 0.736193 0.35636 0.36227 
0.369349 0.756267 0.750029 0.747921 0.759271 0.762286 0.398259 0.402844 0.401458 
0.395976 0.744836 0.751381 0.737057 0.737405 0.740935 0.346189 0.34973 0.349761 
0.348314 0.3444 0.229302 0.27596 0.274881 0.23638 0.219788 -0.170989 -0.310152 
-0.252262 -0.0972091 0.259503 0.278612 0.277051 0.254887 0.887554 0.88417 0.887207 
0.789344 0.723853 0.596432 0.839663 0.877888 0.526023 0.797261 0.756503 0.772423 
0.76917 0.773633 0.776461 0.767199 0.771216 0.344021 0.348436 0.343987 0.346977 
0.321799 0.320689 0.3096 0.314088 0.321887 0.317593 0.29756 0.285275 0.286373 
0.299082 0.892511 0.90205 0.888284 0.880629 0.890288 0.202934 0.263745 0.256963 
0.19097 0.494 0.458094 0.180653 0.0467176 0.0438635 0.384575 0.211575 0.123026 
0.0376555 0.0927597 0.327222 0.318894 0.319364 0.329126 0.0584749 0.114414 0.515763 
0.59449 0.884096 0.804314 0.835362 0.929487 0.952741 0.964636 0.969235 0.883108 
0.936759 0.933736 0.872057 0.889694 0.881035 0.300425 0.305807 0.295653 0.31743 
0.311739 0.288897 0.284764 0.269963 0.2741 0.765266 0.767935 0.768349 0.7653 
0.775106 0.772849 0.771824 0.349649 0.34975 0.348761 0.349994 0.350885 0.34776 
0.351397 0.75875 0.762509 0.766096 0.356447 0.358766 0.364565 0.361028 0.76565 
0.769463 0.771305 0.771768 0.771313 0.769265 0.774017 0.770602 0.770358 0.771927 
0.348325 0.353536 0.386872 0.391214 0.394332 0.388025 0.382671 0.383113 0.389021 
0.748886 0.753478 0.756653 0.761225 0.765021 0.759401 0.75402 0.767111 0.768758 
0.610152 0.600391 0.60293 0.609645 0.575155 0.512863 0.586247 0.573406 0.585784 