# vtk DataFile Version 5.1
vtk output
ASCII
DATASET POLYDATA
POINTS 6431 float
0.766286 -0.750036 -0.011355 0.755347 -0.745462 -0.00830097 0.748835 -0.750533 -0.00527803 
0.748883 -0.76618 -0.00278802 0.769617 -0.765045 -0.0100957 0.75414 -0.733751 -0.00966497 
0.733402 -0.734869 -0.00236799 0.7346 -0.749913 -0.000485181 0.499966 -0.250011 -0.00123406 
0.48644 -0.249246 0.00312489 0.485589 -0.265407 0.00590203 0.500807 -0.265284 0.000845628 
0.498893 -0.234917 -0.00308457 0.485646 -0.234043 0.00117499 0.735199 -0.249621 -0.0136303 
0.746779 -0.249796 -0.0192831 0.749842 -0.265317 -0.0183601 0.735264 -0.265182 -0.0111972 
0.514233 -0.250617 -0.00586302 0.520762 -0.245564 -0.00879717 0.519602 -0.233792 -0.0101052 
0.745618 -0.234787 -0.0210917 0.734076 -0.234612 -0.0154574 0.514812 -0.375412 0.0137069 
0.501673 -0.374272 0.0180977 0.501044 -0.390479 0.0209658 0.516061 -0.390438 0.0157275 
0.496398 -0.499805 0.119056 0.495812 -0.484586 0.118381 0.5169 -0.484346 0.112082 
0.517348 -0.499506 0.113176 0.499673 -0.390669 0.109603 0.498826 -0.375216 0.10845 
0.511886 -0.37493 0.103912 0.514718 -0.390483 0.104385 0.623767 -0.500609 -0.00312451 
0.610553 -0.499486 0.00111901 0.609941 -0.515685 0.00403657 0.625029 -0.51562 -0.00103459 
0.98852 -0.624389 -0.102319 0.999224 -0.625029 -0.105542 0.999527 -0.608836 -0.107818 
0.985409 -0.609314 -0.10341 0.376057 0 0.000263608 0.376878 -0.0148785 0.00269488 
0.389983 -0.015601 -0.00159153 0.38889 0 -0.00384057 0.892268 -0.374298 -0.106545 
0.879311 -0.374278 -0.10254 0.880477 -0.386004 -0.101229 0.891571 -0.39053 -0.104016 
0.516765 -0.515149 0.114506 0.510227 -0.519943 0.116568 0.499097 -0.515442 0.119246 
0.613318 -0.624446 0.0210539 0.626143 -0.624494 0.0167301 0.625026 -0.609362 0.0146025 
0.609959 -0.60943 0.0197021 0.488864 -0.374185 0.0225457 0.490113 -0.385871 0.0240204 
0.485969 -0.374531 0.112825 0.485467 -0.390166 0.11441 0.123764 -0.125966 0.120599 
0.129928 -0.120682 0.115282 0.126193 -0.108773 0.11369 0.116213 -0.10386 0.117712 
0.110326 -0.109025 0.123028 0.110627 -0.124627 0.128915 0.376621 -0.108661 0.0180329 
0.375984 -0.124872 0.0208786 0.391055 -0.124809 0.0157629 0.389814 -0.109782 0.0137453 
0.369136 0 0.11603 0.390028 0 0.107929 0.390746 -0.0158547 0.109525 
0.370027 -0.0161212 0.117447 0.751505 -0.889967 0.0174885 0.750309 -0.874867 0.0152857 
0.735388 -0.874858 0.0207415 0.738775 -0.889842 0.0221224 0.74899 -0.859876 0.0131121 
0.735946 -0.858679 0.0176704 0.749196 -0.37537 -0.000609729 0.750406 -0.390391 0.00115605 
0.730548 -0.390668 0.010545 0.729231 -0.375974 0.00894394 0.5005 -0.359137 0.0159092 
0.514713 -0.35978 0.0110693 0.498286 -0.359847 0.107185 0.510812 -0.360288 0.102884 
0.728317 -0.363957 0.00774725 0.734963 -0.359025 0.00380042 0.74957 -0.359161 -0.00332621 
0.875669 -0.983676 -0.0116818 0.864705 -0.979669 -0.00845626 0.858144 -0.984317 -0.00528052 
0.858996 -1 0.00324002 0.874588 -1 0.000203631 0.879002 -0.995033 -0.0109762 
0.871796 -0.749819 -0.00367345 0.891198 -0.749722 -0.0140172 0.891399 -0.765218 -0.0113618 
0.884887 -0.77019 -0.00705132 0.875144 -0.765372 -0.00284254 0.639308 -0.516232 -0.00572565 
0.645793 -0.511113 -0.00876801 0.644537 -0.499436 -0.0102879 0.870495 -0.734813 -0.00543229 
0.890125 -0.734813 -0.0158984 1.00036 -0.641148 -0.103717 0.989594 -0.636263 -0.101022 
0.868456 -0.614167 -0.0240776 0.869527 -0.626154 -0.022672 0.85812 -0.625495 -0.0169078 
0.858492 -0.609296 -0.0197442 0.870623 -0.641023 -0.0208091 0.859223 -0.640458 -0.0150333 
0.363492 0 0.00433131 0.364153 -0.0144606 0.00674974 0.983713 -0.392872 -0.126881 
0.979486 -0.375409 -0.12822 0.980211 -0.375539 -0.133389 0.983562 -0.3902 -0.132521 
0.876084 -0.359237 -0.103637 0.891409 -0.359081 -0.1084 0.977637 -0.360215 -0.129866 
0.979498 -0.359322 -0.135359 0.857731 -0.250504 -0.11301 0.8586 -0.265686 -0.111203 
0.879766 -0.264569 -0.117824 0.878641 -0.249944 -0.119469 0.748964 -0.015726 -0.112279 
0.747974 0 -0.114048 0.73436 0 -0.110011 0.735172 -0.0153131 -0.108202 
0.879068 -0.140052 -0.134534 0.875821 -0.124978 -0.135598 0.864711 -0.120442 -0.132863 
0.858227 -0.125528 -0.130182 0.858254 -0.141161 -0.127998 0.890863 0 -0.139891 
0.890643 -0.0153129 -0.137502 0.884136 -0.0201746 -0.132921 0.875096 -0.0154762 -0.128287 
0.872336 0 -0.129103 0.770164 -0.0146875 -0.118771 0.769737 0 -0.120623 
0.854146 -0.0162353 -0.115993 0.852876 0 -0.117853 0.875564 -0.234498 -0.120629 
0.864522 -0.229922 -0.117881 0.858001 -0.234982 -0.115203 0.764428 -0.875549 0.0102408 
0.764547 -0.89116 0.0129269 0.770918 -0.870437 0.00696398 0.769597 -0.858791 0.00538281 
0.852717 -0.754834 0.00693702 0.859186 -0.749832 0.00279821 0.853791 -0.766819 0.00835003 
0.625476 -0.640729 0.0194904 0.614539 -0.636147 0.0224687 0.639069 -0.625492 0.0125209 
0.639276 -0.609972 0.0098915 0.640123 -0.640587 0.0145217 0.267602 -0.376113 0.139186 
0.267616 -0.375288 0.12401 0.259669 -0.361068 0.122604 0.252748 -0.355571 0.127703 
0.25213 -0.356396 0.138082 0.263108 -0.361785 0.14485 0.485479 -0.359168 0.0211474 
0.485544 -0.359348 0.111504 0.271823 -0.369996 0.115674 0.268998 -0.359459 0.112821 
0.271859 -0.38494 0.128325 0.272111 -0.384852 0.135788 0.14415 -0.140128 0.113215 
0.139827 -0.125577 0.111225 0.123762 -0.141538 0.126571 0.375676 -0.124906 0.126648 
0.376294 -0.140198 0.127729 0.355529 -0.140614 0.134613 0.354569 -0.125891 0.133511 
0.379327 -0.139874 0.0221798 0.392179 -0.139943 0.0178371 0.36501 -0.120279 0.0238511 
0.363769 -0.108592 0.0223757 0.353868 -0.113767 0.132669 0.360486 -0.108915 0.130121 
0.374804 -0.109389 0.125521 0.550954 -0.499359 0.0214093 0.563786 -0.49944 0.0170187 
0.562653 -0.484318 0.0149307 0.547607 -0.484371 0.0201031 0.566595 -0.436863 0.00583033 
0.545859 -0.438006 0.0131333 0.547106 -0.453031 0.0151584 0.561344 -0.453653 0.0103734 
0.567841 -0.448549 0.00731041 0.954071 -0.937242 -0.0462404 0.941104 -0.937458 -0.0417132 
0.942333 -0.952043 -0.0399242 0.955051 -0.952477 -0.0442741 1.00511 -0.993704 -0.0554618 
1.00381 -0.983257 -0.0565926 0.982899 -0.983958 -0.049204 0.982652 -0.995511 -0.0473681 
0.999363 -1 -0.0472614 0.933345 -0.93761 -0.00521801 0.952683 -0.937582 -0.0157305 
0.952709 -0.953036 -0.0130737 0.9463 -0.958002 -0.00874661 0.936473 -0.95309 -0.00426692 
0.548278 -0.0618976 -0.0449036 0.561608 -0.0629491 -0.048912 0.561659 -0.0472078 -0.0511629 
0.547247 -0.0466737 -0.0468178 0.517363 0 -0.0443744 0.505241 0 -0.040599 
0.505531 -0.0110854 -0.0390206 0.516545 -0.0156075 -0.0417927 0.563176 -0.515638 0.0199421 
0.552215 -0.511034 0.0229328 0.4386 -0.499471 0.0635131 0.452276 -0.500399 0.058194 
0.458795 -0.495192 0.0545003 0.457306 -0.483756 0.0528141 0.436922 -0.484683 0.0610804 
0.558512 -0.0469154 0.0415045 0.561472 -0.0624401 0.0423444 0.547861 -0.0621454 0.0486413 
0.546537 -0.047012 0.0470729 1.00818 -0.625314 -0.108329 1.00733 -0.609102 -0.110258 
0.702181 -0.750438 0.0108609 0.68836 -0.749776 0.015888 0.689514 -0.764862 0.0182056 
0.702341 -0.766043 0.01362 0.692227 -0.795948 0.0228388 0.693537 -0.807604 0.0244307 
0.704339 -0.812271 0.0211518 0.704881 -0.796106 0.0180452 0.699347 -0.500004 0.0420299 
0.687649 -0.499844 0.047473 0.686468 -0.484811 0.0457631 0.698113 -0.48536 0.0404035 
0.687141 -0.265388 0.0124426 0.684022 -0.249912 0.0115206 0.703807 -0.249645 0.00177296 
0.7039 -0.265219 0.00419458 0.697258 -0.27022 0.00824536 0.814526 -0.936755 0.00258541 
0.801874 -0.936296 0.00716653 0.802899 -0.948192 0.00887136 0.81378 -0.952876 0.00570626 
1.00023 -0.812057 -0.0653613 0.979221 -0.813548 -0.0530687 0.97811 -0.801532 -0.054569 
0.984582 -0.796577 -0.0591555 0.99684 -0.796721 -0.0661489 0.750618 -0.812523 0.00412282 
0.765173 -0.812437 -0.000977187 0.764097 -0.797354 -0.00302337 0.751202 -0.796339 0.00124552 
0.750746 -0.515626 -0.0421903 0.751449 -0.499384 -0.0447926 0.738522 -0.499354 -0.0406757 
0.739711 -0.511069 -0.039328 0.688551 -0.687358 0.00547002 0.691868 -0.702377 0.00669483 
0.704727 -0.702437 0.00236163 0.70363 -0.687286 0.000366469 0.816628 -0.561867 -0.0563577 
0.813346 -0.546826 -0.0575034 0.802307 -0.54228 -0.0546379 0.795812 -0.547365 -0.0518275 
0.795888 -0.562985 -0.0495702 0.79699 -0.51537 -0.00286767 0.79368 -0.499803 -0.00361737 
0.813187 -0.499685 -0.013869 0.813266 -0.515218 -0.0114301 0.806662 -0.520196 -0.00717058 
0.764757 -0.500441 -0.0488506 0.765921 -0.515508 -0.0470185 0.483232 -0.188022 -0.00520946 
0.483289 -0.203664 -0.00269092 0.504043 -0.20251 -0.00990914 0.5007 -0.187509 -0.0112104 
0.489726 -0.182915 -0.00823784 0.75044 -0.484159 -0.0466339 0.735243 -0.484326 -0.0417876 
0.74842 -0.4536 -0.0503027 0.748665 -0.43809 -0.0525683 0.734328 -0.437525 -0.048098 
0.735102 -0.452837 -0.046184 0.744155 -0.317088 -0.0073349 0.734038 -0.312256 -0.00313771 
0.730923 -0.296776 -0.0040619 0.750685 -0.296544 -0.0138287 0.750777 -0.31209 -0.0114058 
0.812175 -0.484772 -0.0157164 0.792392 -0.484787 -0.00533636 0.764816 -0.484699 -0.0511103 
0.755196 -0.433026 -0.055355 0.769295 -0.453057 -0.0570041 0.766213 -0.437613 -0.0582041 
0.796653 -0.437343 -0.0151355 0.807999 -0.437917 -0.0209958 0.809287 -0.452933 -0.0192773 
0.796736 -0.452928 -0.012694 0.765244 -0.31226 -0.0187779 0.762146 -0.296773 -0.0196551 
0.750069 -0.0154174 -0.059174 0.743588 -0.0203418 -0.0548664 0.733775 -0.0154963 -0.0503574 
0.730811 0 -0.0511651 0.750298 0 -0.0614732 0.761146 0 -0.0672137 
0.762557 -0.0153633 -0.0658126 0.765361 -0.0623617 -0.0597563 0.758896 -0.067314 -0.0554529 
0.749079 -0.0624145 -0.0509504 0.745996 -0.0469197 -0.0518196 0.765392 -0.0468897 -0.062304 
0.812715 -0.187175 -0.0651499 0.81228 -0.203144 -0.0622759 0.79289 -0.203161 -0.0517716 
0.791577 -0.188537 -0.0534487 0.797416 -0.995476 0.0194837 0.812151 -1 0.0189053 
0.811845 -0.984043 0.0118678 0.797922 -0.983059 0.0169465 0.766109 -0.749714 0.0481219 
0.766093 -0.765318 0.0503314 0.759403 -0.770328 0.0540649 0.749082 -0.765542 0.0578131 
0.746035 -0.75008 0.0570081 0.563466 -0.687335 0.0514016 0.552825 -0.682563 0.0549457 
[...]
POINT_DATA 6431
SCALARS mean float
LOOKUP_TABLE default
0.699878 0.706067 0.709302 0.708414 0.70064 0.705949 0.713603 0.713532 0.741893 
0.745306 0.747482 0.742931 0.741428 0.744272 0.374423 0.380828 0.375878 0.371658 
0.739277 0.736273 0.735238 0.385452 0.379882 0.751421 0.756191 0.759123 0.753904 
0.314064 0.311666 0.313051 0.31606 0.303156 0.305404 0.303417 0.301411 0.730305 
0.733652 0.736696 0.732229 0.559174 0.53363 0.528006 0.558019 0.758933 0.759666 
0.755754 0.755825 0.643152 0.650867 0.649654 0.642699 0.318711 0.318488 0.315351 
0.752708 0.746805 0.744865 0.750094 0.762531 0.763702 0.308758 0.305458 0.898972 
0.883573 0.878032 0.888514 0.90523 0.904729 0.761794 0.764373 0.759685 0.758832 
0.332084 0.339656 0.340141 0.332462 0.709073 0.711948 0.719678 0.71871 0.714046 
0.720287 0.345236 0.342393 0.337126 0.338394 0.754951 0.749847 0.308109 0.305752 
0.340395 0.345706 0.34875 0.60047 0.609155 0.593241 0.500966 0.485476 0.539714 
0.393367 0.39597 0.398804 0.398637 0.398308 0.728718 0.725102 0.723408 0.390473 
0.394491 0.539288 0.560434 0.377694 0.378776 0.374515 0.373185 0.380027 0.375611 
0.762612 0.762976 0.500575 0.509323 0.535309 0.533074 0.651928 0.644723 0.51325 
0.539986 0.666696 0.664741 0.657903 0.660346 0.696438 0.696282 0.698178 0.698629 
0.6746 0.675965 0.679385 0.680789 0.679087 0.5961 0.595128 0.585953 0.575066 
0.575519 0.694311 0.694127 0.554766 0.555834 0.663482 0.668899 0.669933 0.705215 
0.701915 0.70282 0.703536 0.393094 0.392565 0.396365 0.749733 0.754287 0.742836 
0.742036 0.74434 0.0487405 0.605072 0.649999 0.487598 0.0217106 -0.226322 0.75984 
0.314112 0.847293 0.864132 0.527398 0.137559 0.883402 0.874795 0.898607 0.320319 
0.31936 0.309133 0.313815 0.764931 0.760895 0.767097 0.76697 0.314698 0.315916 
0.321855 0.757783 0.750461 0.750035 0.756004 0.743217 0.749729 0.75144 0.748231 
0.744485 0.616069 0.622462 0.618035 0.609663 0.512088 0.55491 0.565338 0.507865 
0.476584 0.446153 0.442611 0.446414 0.448757 0.449018 0.723925 0.722592 0.722504 
0.723607 0.727815 0.730322 0.730945 0.728244 0.753589 0.759072 0.821472 0.814546 
0.806164 0.801943 0.814887 0.394028 0.391806 0.387863 0.389413 0.497875 0.493577 
0.731345 0.737377 0.738818 0.731912 0.743776 0.744861 0.736456 0.734341 0.322353 
0.319037 0.317267 0.320106 0.351961 0.35804 0.363374 0.360241 0.354892 0.667136 
0.673639 0.665718 0.658771 0.434374 0.424688 0.425397 0.430446 0.43689 0.710349 
0.703313 0.70331 0.708992 0.69308 0.692591 0.69719 0.697211 0.728354 0.729312 
0.72358 0.723377 0.673865 0.673871 0.678371 0.682028 0.680219 0.347697 0.347947 
0.356513 0.35691 0.351584 0.689032 0.689142 0.742382 0.743523 0.737323 0.736851 
0.740652 0.69304 0.696694 0.693881 0.694821 0.697244 0.697048 0.357543 0.354039 
0.358927 0.366506 0.365584 0.359074 0.347714 0.689558 0.691691 0.687731 0.688086 
0.357678 0.364132 0.363028 0.357296 0.368237 0.372424 0.477159 0.47015 0.462735 
0.463446 0.474145 0.483092 0.483292 0.476247 0.468932 0.463238 0.466266 0.478493 
0.452278 0.442017 0.43012 0.436906 0.477393 0.435941 0.595955 0.609317 0.402015 
0.406025 0.409005 0.409319 0.404256 0.804885 0.815624 0.828319 0.834298 0.816631 
0.846736 0.835744 0.854222 0.859957 0.328536 0.32443 0.327131 0.329369 0.321659 
0.32399 0.7263 0.725336 0.735111 0.387683 0.38115 0.379134 0.385956 0.399161 
0.396565 0.376824 0.383997 0.752324 0.746009 0.744776 0.748383 0.751548 0.755386 
0.757501 0.759679 0.755918 0.803769 0.812228 0.815453 0.809391 0.899873 0.80453 
0.805626 0.800786 0.799545 0.206597 0.201986 0.22778 0.233365 0.756361 0.753987 
0.75427 0.755475 0.75106 0.750674 0.753972 0.795403 0.798687 0.788769 0.785567 
0.789214 0.800341 0.808354 0.343063 0.33789 0.333215 0.335135 0.342884 0.848678 
0.778879 0.751845 0.847627 0.304325 0.302054 0.30251 0.303008 0.302191 0.303619 
0.302251 0.300135 0.300924 0.746163 0.746098 0.739824 0.744325 0.74844 0.306743 
0.304748 0.303145 0.305663 0.303864 0.301682 0.625887 0.618972 0.43158 0.428752 
0.426453 0.43004 0.442134 0.438904 0.629703 0.629004 0.623944 0.617171 0.617235 
0.5755 0.572561 0.594701 0.595954 0.434233 0.430231 0.635476 0.634796 0.650879 
0.641745 0.642274 0.649522 0.653186 0.420986 0.422007 0.429183 0.436675 0.434369 
0.525309 0.527866 0.554891 0.549988 0.524091 0.594294 0.60907 0.609797 0.595096 
0.430411 0.434252 0.440772 0.440094 0.416619 0.417246 0.424992 0.424182 0.412807 
0.415532 0.431741 0.420138 0.521309 0.551218 0.417839 0.418845 0.747954 0.74577 
0.741399 0.740466 0.746979 0.758731 0.755523 0.754671 0.759419 0.750198 0.752166 
0.609824 0.612245 0.624307 0.629624 0.628023 0.418083 0.413032 0.416125 0.427449 
0.426165 0.622348 0.611158 0.614948 0.623637 0.504634 0.503508 0.477253 0.482396 
0.486864 0.607733 0.594031 0.610398 0.598259 0.590231 0.591217 0.393112 0.396534 
0.411695 0.40936 0.487967 0.507924 0.592861 0.607246 0.620112 0.620909 0.435458 
0.419553 0.427526 0.621688 0.397697 0.405721 0.413743 0.712522 0.712831 0.71531 
0.715176 0.714783 0.7155 0.715417 0.713953 0.721787 0.724742 0.719279 0.720154 
0.721492 0.720273 0.719715 0.722967 0.723189 0.720456 0.720378 0.713278 0.713481 
0.716635 0.570535 0.58301 0.578529 0.558774 0.560279 0.571324 0.584962 0.347463 
0.347193 0.341262 0.341812 0.330118 0.326198 0.326829 0.329688 0.833678 0.822136 
0.811049 0.807077 0.825333 0.747908 0.737171 0.735317 0.739435 0.743381 0.74395 
0.314097 0.315342 0.318129 0.317837 0.32426 0.327542 0.324324 0.349218 0.34224 
0.331135 0.745915 0.742238 0.738962 0.820122 0.829046 0.839601 0.844162 0.826876 
0.809469 0.812809 0.800015 0.795797 0.8011 0.825827 0.83283 0.30647 0.305864 
0.305376 0.854316 0.84326 0.832351 0.303372 0.900225 0.888501 0.884566 0.909136 
0.917669 0.919415 0.90915 0.900206 0.915328 0.349033 0.348023 0.342489 0.343144 
0.756253 0.761231 0.761762 0.330116 0.331097 0.338675 0.338217 0.33625 0.389617 
0.386112 0.37727 0.37482 0.378509 0.383992 0.381917 0.395116 0.394439 0.384706 
0.389016 0.496488 0.68634 0.745262 0.633437 0.498595 0.489732 0.564949 0.844078 
0.854623 0.789899 0.718349 0.854216 0.834387 0.830231 0.410471 0.416029 0.424202 
0.40573 0.873789 0.83987 0.821939 0.782354 0.812362 0.866982 0.437448 0.445991 
0.450079 0.441744 0.413409 0.423227 0.42611 0.423472 0.421151 0.420383 0.425232 
0.710608 0.717508 0.722604 0.722685 0.745767 0.748393 0.306531 0.305451 0.303696 
0.304194 0.313998 0.317739 0.317124 0.313831 0.315557 0.313408 0.319319 0.314829 
0.304885 0.306445 0.338909 0.339815 0.332122 0.331509 0.3218 0.317087 0.315528 
0.319425 0.310644 0.315153 0.311644 0.35475 0.349822 0.31934 0.324553 0.31169 
0.311241 0.315498 0.652125 0.661604 0.680604 0.677508 0.678874 0.687183 0.685631 
0.673139 0.679356 0.668168 0.624535 0.633678 0.634025 0.626419 0.632298 0.618142 
0.626867 0.430161 0.424279 0.444249 0.443443 0.438346 0.433407 0.432716 0.608105 
0.61777 0.625271 0.622869 0.609567 0.651505 0.654897 0.6552 0.649557 0.655593 
0.655357 0.648949 0.649993 0.570507 0.587158 0.597206 0.426338 0.424354 0.424191 
0.636145 0.655495 0.649022 0.703539 0.680377 0.685952 0.689132 0.661136 0.661642 
0.7321 0.730792 0.734224 0.727323 0.727289 0.718357 0.718183 0.723054 0.722465 
0.726928 0.731253 0.731521 0.732943 0.733726 0.650511 0.645856 0.641122 0.649845 
0.643735 0.643428 0.649153 0.421118 0.421136 0.416812 0.411683 0.411548 0.424024 
0.419274 0.44708 0.432577 0.439504 0.44848 0.449745 0.44379 0.654936 0.646451 
0.644701 0.38649 0.383379 0.386977 0.390132 0.447505 0.441615 0.382726 0.385961 
0.412305 0.406523 0.406432 0.673544 0.668618 0.667848 0.657414 0.656727 0.362517 
0.360652 0.360018 0.355583 0.350886 0.350575 0.358385 0.679401 0.676437 0.678786 
0.673539 0.673865 0.678231 0.669822 0.671706 0.656177 0.655877 0.655798 0.659698 
0.385015 0.382623 0.379897 0.660524 0.659915 0.650274 0.673449 0.679165 0.674597 
0.675316 0.670198 0.668567 0.377785 0.669381 0.749152 0.746491 0.748158 0.752574 
0.753248 0.703246 0.707072 0.707251 0.70353 0.691578 0.697133 0.731921 0.731572 
0.73368 0.735708 0.734833 0.689752 0.690474 0.694031 0.6964 0.695985 0.706801 
0.703361 0.709645 0.707498 0.704931 0.705061 0.709997 0.714067 0.716348 0.717169 
0.714424 0.706407 0.709583 0.710596 0.710602 0.36393 0.366702 0.359842 0.670856 
0.667776 0.667052 0.674495 0.673228 0.402647 0.409718 0.399994 0.650908 0.655891 
0.654093 0.647573 0.417783 0.430527 0.431926 0.43757 0.44716 0.441379 0.545896 
0.558972 0.548457 0.531868 0.49708 0.504021 0.52159 0.513328 0.647388 0.648515 
0.656684 0.518639 0.510173 0.521607 0.445607 0.453151 0.60203 0.605681 0.619665 
0.625143 0.621076 0.618737 0.608361 0.598613 0.660787 0.659898 0.420225 0.424369 
0.364627 0.429777 0.424373 0.413848 0.418253 0.688555 0.686813 0.685872 0.692064 
0.691239 0.661192 0.453986 0.466283 0.458549 0.446934 0.428864 0.715588 0.712748 
0.718809 0.715148 0.718013 0.714414 0.714866 0.716796 0.716874 0.72314 0.72072 
0.715494 0.716382 0.710715 0.711739 0.711358 0.711596 0.429552 0.436612 0.436341 
0.42995 0.432151 0.429202 0.425382 0.426518 0.408508 0.412487 0.41838 0.422044 
0.415228 0.425015 0.432999 0.430844 0.698707 0.696063 0.696187 0.698627 0.696454 
0.69851 0.418855 0.420772 0.703395 0.703991 0.705571 0.707313 0.70667 0.710443 
0.713213 0.711542 0.71083 0.713299 0.409407 0.403091 0.710943 0.713496 0.67059 
0.673217 0.675792 0.67405 0.686639 0.686324 0.683886 0.683921 0.672291 0.668349 
0.625502 0.620539 0.605482 0.610331 0.676936 0.677129 0.676092 0.672754 0.675613 
0.679099 0.675279 0.677371 0.578445 0.563239 0.574276 0.583438 0.555019 0.564923 
0.528888 0.570434 0.555272 0.495628 0.485487 0.490293 0.499993 0.507379 0.504179 
0.495262 0.497468 0.694397 0.694954 0.500972 0.493285 0.689628 0.688122 0.689817 
0.690774 0.693897 0.476788 0.470785 0.477484 0.589232 0.592827 0.612461 0.601392 
0.592484 0.596902 0.610357 0.665592 0.66506 0.664157 0.46826 0.457276 0.459292 
0.473465 0.684305 0.684187 0.681298 0.682557 0.488549 0.473236 0.682338 0.687121 
0.685874 0.451271 0.437013 0.423419 0.442042 0.451774 0.463119 0.680422 0.678959 
0.675209 0.675957 0.472535 0.463118 0.679842 0.686893 0.414488 0.52398 0.607111 
0.615908 0.704213 0.69955 0.68754 0.694022 0.433058 0.432764 0.432179 0.431434 
0.434765 0.432044 0.435103 0.419937 0.41525 0.411524 0.41037 0.417048 0.420924 
0.420662 0.424387 0.424531 0.429473 0.429913 0.414853 0.407728 0.40633 0.430449 
0.353842 0.353453 0.376724 0.379059 0.371293 0.368658 0.842624 0.826506 0.816781 
0.813052 0.412692 0.333616 0.373069 0.366738 0.405166 0.403994 0.873245 0.877759 
0.879921 0.876525 0.382746 0.387497 0.387756 0.356176 0.354836 0.364989 0.372096 
0.854414 0.845379 0.869176 0.376025 0.404814 0.385676 0.333787 0.333735 0.328288 
0.35145 0.352828 0.347662 0.345859 0.320591 0.317707 0.332832 0.335084 0.346176 
0.349964 0.348967 0.34363 0.357417 0.361101 0.359542 0.742854 0.356544 0.35622 
0.375238 0.371351 0.37113 0.36996 0.858889 0.851363 0.864962 0.754276 0.750283 
0.746628 0.761753 0.762969 0.330104 0.325095 0.328944 0.332794 0.33896 0.343317 
0.341759 0.338338 0.319692 0.324349 0.309951 0.313714 0.313025 0.309674 0.308751 
0.307367 0.307134 0.830304 0.838131 0.830691 0.819689 0.815951 0.858921 0.865704 
0.85492 0.843986 0.842165 0.825358 0.833381 0.802216 0.799125 0.850382 0.810572 
0.817418 0.0462477 0.0153843 -0.0265166 -0.00117316 0.686303 0.865585 0.89134 0.875747 
0.69073 0.59343 -0.0389531 -0.0190889 0.0248082 -0.015012 0.113498 0.144956 0.114962 
0.0765095 -0.0102028 0.0594831 0.0311525 0.136868 0.165808 0.140876 0.10908 -0.113275 
0.837572 0.61354 0.0906812 0.215783 0.224146 0.215435 0.19842 0.17146 0.147494 
0.18548 0.160826 0.814916 0.811774 0.819916 0.82327 0.81029 0.810932 0.795357 
0.793182 0.798227 0.801893 0.786798 0.786098 0.790755 0.793815 0.794268 0.809673 
0.803159 0.802771 0.806382 0.808911 0.804283 0.824757 0.828089 0.821801 0.816288 
0.815541 0.0504589 0.0919739 0.0200845 -0.04976 0.146368 -0.00641036 0.00879512 -0.0222937 
-0.024238 0.91525 0.873044 0.913141 0.337891 0.222722 0.107384 0.129006 0.772333 
0.381193 0.339391 0.586318 0.9169 0.897115 0.161186 0.219605 0.215692 0.206569 
0.211393 0.162306 0.146527 0.17206 0.184186 0.204318 0.197674 0.356649 0.822996 
0.818063 0.827442 0.83336 0.806026 0.800349 0.815213 0.820864 0.204532 0.220077 
0.206279 0.188233 0.0603109 0.168757 0.143338 0.232284 0.231284 0.241417 0.244879 
0.246713 0.254291 0.251955 0.226626 0.223784 0.197977 0.176428 0.220809 0.190954 
0.220469 0.241256 0.237598 0.347289 0.341363 0.343468 0.342506 0.335088 0.334381 
0.337865 0.760392 0.757629 0.758331 0.338489 0.343932 0.340465 0.348072 0.345744 
0.333926 0.352391 0.35232 0.349204 0.766151 0.768395 0.770143 0.766707 0.791525 
0.788999 0.787355 0.764254 0.764159 0.837464 0.843803 0.835225 0.826561 0.810927 
0.807404 0.817307 0.793546 0.791046 0.793966 0.802935 0.809037 0.361154 0.365723 
0.366605 0.361837 0.347971 0.345777 0.380938 0.38502 0.378757 0.375116 0.385883 
0.390659 0.764913 0.760862 0.759182 0.76685 0.769689 0.778794 0.772139 0.775177 
0.766742 0.770645 0.448965 0.454086 0.447612 0.449742 0.445746 0.451531 0.45088 
0.443422 0.448282 0.446192 0.773064 0.769983 0.776775 0.78132 0.782917 0.777629 
0.780149 0.461704 0.470426 0.451867 0.452381 0.829394 0.819 0.673291 0.684705 
0.646161 0.641106 0.357506 0.362471 0.364963 0.362085 0.693853 0.700388 0.694121 
0.70859 0.703876 0.719657 0.718254 0.705094 0.710035 0.713331 0.719583 0.699311 
0.69862 0.693487 0.694602 0.743456 0.747427 0.74977 0.749981 0.741665 0.744404 
0.748894 0.748028 0.732385 0.739788 0.733486 0.371043 0.367235 0.377718 0.380989 
0.388947 0.39364 0.389078 0.392 0.399546 0.733516 0.730003 0.729062 0.738116 
0.372563 0.384226 0.391595 0.409587 0.404847 0.398857 0.404421 0.614699 0.650245 
0.663183 0.659596 0.623819 0.478165 0.445022 0.361772 0.49451 0.335604 0.335327 
0.339934 0.339723 0.777534 0.777081 0.780815 0.780547 0.776614 0.780926 0.754768 
0.760984 0.749205 0.744892 0.74285 0.310671 0.314347 0.309026 0.307319 0.300731 
0.301874 0.621548 0.599572 0.595348 0.615976 0.62446 0.428908 0.426939 0.425341 
0.427869 0.738934 0.740062 0.733103 0.738197 0.520642 0.508371 0.543646 0.56179 
0.559523 0.578053 0.545011 0.576901 0.554796 0.524242 0.633575 0.632261 0.640921 
0.641147 0.633513 0.640553 0.381098 0.387453 0.387679 0.380144 0.387548 0.735963 
0.734536 0.734606 0.735183 0.748663 0.746863 0.760175 0.755839 0.751395 0.748305 
0.729336 0.725569 0.725699 0.731723 0.732099 0.7268 0.72654 0.729708 0.730299 
0.635069 0.635871 0.475506 0.473843 0.458771 0.459917 0.46658 0.506149 0.508554 
0.481031 0.579727 0.54282 0.566912 0.479379 0.48467 0.495962 0.510316 0.491304 
0.508507 0.476909 0.633346 0.64 0.639697 0.632963 0.64635 0.646747 0.64703 
0.5827 0.558634 0.561913 0.573812 0.588487 0.59072 0.576128 0.572152 0.585093 
0.454484 0.450504 0.450123 0.451189 0.440077 0.441877 0.441163 0.437651 0.435199 
0.336034 0.336009 0.34297 0.343043 0.353222 0.351367 0.344368 0.349464 0.336519 
0.318125 0.315924 0.31086 0.311918 0.315175 0.747544 0.743771 0.772382 0.768868 
0.767518 0.769903 0.305111 0.308255 0.313648 0.303173 0.90603 0.906666 0.848004 
0.846431 0.85472 0.86232 0.865537 0.757853 0.755409 0.754529 0.758549 0.761945 
0.75361 0.756516 0.360109 0.362981 0.367804 0.365974 0.339777 0.332238 0.345845 
0.34506 0.402104 0.402145 0.404585 0.406631 0.406493 0.481631 0.52058 0.479569 
0.472659 0.499189 0.470901 0.567324 0.589057 0.462216 0.716877 0.733335 0.733188 
0.722584 0.707182 0.728627 0.734172 0.572077 0.456232 0.517485 0.615389 0.55788 
0.467473 0.460263 0.431584 0.421426 0.422479 0.429234 0.411889 0.409546 0.418375 
0.421029 0.411492 0.446159 0.45472 0.462632 0.453975 0.721435 0.716103 0.73018 
0.760501 0.75896 0.76727 0.769753 0.77418 0.775229 0.764489 0.756897 0.420392 
0.422136 0.415135 0.414898 0.407488 0.408376 0.333408 0.333745 0.330231 0.341681 
0.337212 0.744974 0.74437 0.751745 0.740704 0.327471 0.329776 0.334634 0.331132 
0.342831 0.341141 0.338545 0.334173 0.308506 0.31273 0.309446 0.306123 0.31189 
0.352491 0.347434 0.336584 0.340003 0.522979 0.603948 0.632175 0.630255 0.659002 
0.663219 0.666226 0.66311 0.401136 0.40005 0.694946 0.695854 0.696337 0.704089 
0.729595 0.7028 0.701848 0.706535 0.710254 0.710674 0.731021 0.736472 0.73767 
0.733687 0.708384 0.707428 0.712211 0.713789 0.69941 0.699479 0.704193 0.708237 
0.700645 0.703909 0.554262 0.54971 0.574007 0.575178 0.549815 0.573698 0.398646 
0.392966 0.387741 0.587377 0.570788 0.573453 0.586881 0.585425 0.53932 0.394692 
0.387959 0.387769 0.395526 0.396522 0.380933 0.365444 0.366431 0.372253 0.377527 
0.37616 0.383862 0.383627 0.370974 0.378559 0.368815 0.368712 0.366291 0.372467 
0.377861 0.371164 0.737767 0.735655 0.739942 0.741929 0.76375 0.72108 0.722522 
0.71841 0.718077 0.728119 0.725964 0.726064 0.727999 0.721811 0.721312 0.725621 
0.522947 0.517749 0.663091 0.656818 0.658036 0.66349 0.658876 0.65456 0.652528 
0.663571 0.374957 0.380072 0.377933 0.372726 0.637573 0.646005 0.652068 0.499558 
0.508491 0.515828 0.571631 0.54511 0.572299 0.660893 0.657772 0.658771 0.665287 
0.664855 0.685951 0.689607 0.688694 0.685742 0.365358 0.360741 0.351206 0.353455 
0.360186 0.669107 0.671013 0.435173 0.441207 0.435499 0.430554 0.435871 0.429086 
0.439963 0.420132 0.424519 0.697776 0.696355 0.700331 0.700533 0.70057 0.699718 
0.698443 0.698892 0.696822 0.697517 0.698094 0.700194 0.696318 0.696238 0.418313 
0.409999 0.407434 0.414126 0.422587 0.42988 0.423407 0.699518 0.697597 0.697592 
0.699789 0.695609 0.695365 0.674937 0.673193 0.677396 0.681934 0.681427 0.680008 
0.665993 0.670318 0.676138 0.674125 0.672615 0.672507 0.673165 0.610665 0.611101 
0.574782 0.552992 0.569881 0.5558 0.546186 0.514138 0.494941 0.503033 0.524865 
0.528602 0.550751 0.543583 0.522837 0.695885 0.694744 0.691981 0.694675 0.693748 
0.691426 0.694147 0.541461 0.553922 0.540703 0.668431 0.67058 0.670214 0.666285 
0.621638 0.612156 0.596076 0.604256 0.59899 0.592254 0.654659 0.652975 0.656394 
0.66155 0.658259 0.688434 0.690752 0.690357 0.686997 0.67259 0.690934 0.693809 
0.695028 0.693917 0.690874 0.684642 0.685283 0.685865 0.685225 0.698745 0.69341 
0.437442 0.434427 0.434665 0.437712 0.440721 0.43984 0.440913 0.711214 0.395995 
0.402157 0.401592 0.426649 0.431127 0.431043 0.429257 0.42413 0.361375 0.356473 
0.35986 0.366982 0.360661 0.350734 0.36811 0.767378 0.777297 0.778728 0.771617 
0.706564 0.475048 0.492329 0.642833 0.390289 0.415712 0.403841 0.402241 0.40411 
0.396466 0.396433 0.770289 0.762365 0.759439 0.765801 0.736346 0.356071 0.361784 
0.369654 0.756398 0.75009 0.748094 0.759265 0.762551 0.398738 0.402911 0.4009 
0.395981 0.744873 0.751172 0.737413 0.737595 0.740755 0.344756 0.34842 0.348941 
0.346746 0.342936 0.229591 0.276319 0.275023 0.237049 0.219915 -0.169849 -0.308956 
-0.252412 -0.0970869 0.258501 0.278012 0.276384 0.254533 0.887839 0.884344 0.887169 
0.789192 0.722762 0.596538 0.839861 0.877346 0.525829 0.797556 0.756632 0.772655 
0.76958 0.773843 0.776198 0.766972 0.771263 0.342917 0.347225 0.342616 0.345372 
0.319503 0.317894 0.308869 0.313384 0.320207 0.315987 0.296193 0.28414 0.285948 
0.297647 0.892665 0.901691 0.887941 0.880952 0.890665 0.203921 0.264135 0.257511 
0.192331 0.492977 0.458046 0.180355 0.047663 0.0454803 0.385107 0.212442 0.122638 
0.0389337 0.0938969 0.326522 0.318211 0.318399 0.328019 0.0583612 0.114953 0.516307 
0.595106 0.883937 0.804691 0.835633 0.929115 0.952427 0.964765 0.969444 0.882982 
0.936918 0.933585 0.871957 0.88916 0.881206 0.299654 0.305256 0.295147 0.317154 
0.311262 0.2874 0.283776 0.269222 0.27377 0.765262 0.768026 0.768226 0.765504 
0.775025 0.773092 0.772377 0.348497 0.348581 0.347847 0.34906 0.350082 0.346572 
0.350569 0.758757 0.763235 0.766394 0.355675 0.358044 0.363575 0.360682 0.765783 
0.769155 0.771297 0.771987 0.771822 0.769753 0.774162 0.770977 0.77035 0.772102 
0.347062 0.352619 0.386577 0.390898 0.394711 0.387829 0.382461 0.382883 0.388779 
0.749002 0.753308 0.756691 0.761402 0.764867 0.759588 0.753603 0.767029 0.768891 
0.61047 0.60046 0.603299 0.610235 0.575627 0.513443 0.58705 0.573316 0.586018 