# vtk DataFile Version 5.1
vtk output
ASCII
DATASET POLYDATA
POINTS 6431 float
0.766286 -0.750036 -0.011355 0.755347 -0.745462 -0.00830097 0.748835 -0.750533 -0.00527803 
0.748883 -0.76618 -0.00278802 0.769617 -0.765045 -0.0100957 0.75414 -0.733751 -0.00966497 
0.733402 -0.734869 -0.00236799 0.7346 -0.749913 -0.000485181 0.499966 -0.250011 -0.00123406 
0.48644 -0.249246 0.00312489 0.485589 -0.265407 0.00590203 0.500807 -0.265284 0.000845628 
0.498893 -0.234917 -0.00308457 0.485646 -0.234043 0.00117499 0.735199 -0.249621 -0.0136303 
0.746779 -0.249796 -0.0192831 0.749842 -0.265317 -0.0183601 0.735264 -0.265182 -0.0111972 
0.514233 -0.250617 -0.00586302 0.520762 -0.245564 -0.00879717 0.519602 -0.233792 -0.0101052 
0.745618 -0.234787 -0.0210917 0.734076 -0.234612 -0.0154574 0.514812 -0.375412 0.0137069 
0.501673 -0.374272 0.0180977 0.501044 -0.390479 0.0209658 0.516061 -0.390438 0.0157275 
0.496398 -0.499805 0.119056 0.495812 -0.484586 0.118381 0.5169 -0.484346 0.112082 
0.517348 -0.499506 0.113176 0.499673 -0.390669 0.109603 0.498826 -0.375216 0.10845 
0.511886 -0.37493 0.103912 0.514718 -0.390483 0.104385 0.623767 -0.500609 -0.00312451 
0.610553 -0.499486 0.00111901 0.609941 -0.515685 0.00403657 0.625029 -0.51562 -0.00103459 
0.98852 -0.624389 -0.102319 0.999224 -0.625029 -0.105542 0.999527 -0.608836 -0.107818 
0.985409 -0.609314 -0.10341 0.376057 0 0.000263608 0.376878 -0.0148785 0.00269488 
0.389983 -0.015601 -0.00159153 0.38889 0 -0.00384057 0.892268 -0.374298 -0.106545 
0.879311 -0.374278 -0.10254 0.880477 -0.386004 -0.101229 0.891571 -0.39053 -0.104016 
0.516765 -0.515149 0.114506 0.510227 -0.519943 0.116568 0.499097 -0.515442 0.119246 
0.613318 -0.624446 0.0210539 0.626143 -0.624494 0.0167301 0.625026 -0.609362 0.0146025 
0.609959 -0.60943 0.0197021 0.488864 -0.374185 0.0225457 0.490113 -0.385871 0.0240204 
0.485969 -0.374531 0.112825 0.485467 -0.390166 0.11441 0.123764 -0.125966 0.120599 
0.129928 -0.120682 0.115282 0.126193 -0.108773 0.11369 0.116213 -0.10386 0.117712 
0.110326 -0.109025 0.123028 0.110627 -0.124627 0.128915 0.376621 -0.108661 0.0180329 
0.375984 -0.124872 0.0208786 0.391055 -0.124809 0.0157629 0.389814 -0.109782 0.0137453 
0.369136 0 0.11603 0.390028 0 0.107929 0.390746 -0.0158547 0.109525 
0.370027 -0.0161212 0.117447 0.751505 -0.889967 0.0174885 0.750309 -0.874867 0.0152857 
0.735388 -0.874858 0.0207415 0.738775 -0.889842 0.0221224 0.74899 -0.859876 0.0131121 
0.735946 -0.858679 0.0176704 0.749196 -0.37537 -0.000609729 0.750406 -0.390391 0.00115605 
0.730548 -0.390668 0.010545 0.729231 -0.375974 0.00894394 0.5005 -0.359137 0.0159092 
0.514713 -0.35978 0.0110693 0.498286 -0.359847 0.107185 0.510812 -0.360288 0.102884 
0.728317 -0.363957 0.00774725 0.734963 -0.359025 0.00380042 0.74957 -0.359161 -0.00332621 
0.875669 -0.983676 -0.0116818 0.864705 -0.979669 -0.00845626 0.858144 -0.984317 -0.00528052 
0.858996 -1 0.00324002 0.874588 -1 0.000203631 0.879002 -0.995033 -0.0109762 
0.871796 -0.749819 -0.00367345 0.891198 -0.749722 -0.0140172 0.891399 -0.765218 -0.0113618 
0.884887 -0.77019 -0.00705132 0.875144 -0.765372 -0.00284254 0.639308 -0.516232 -0.00572565 
0.645793 -0.511113 -0.00876801 0.644537 -0.499436 -0.0102879 0.870495 -0.734813 -0.00543229 
0.890125 -0.734813 -0.0158984 1.00036 -0.641148 -0.103717 0.989594 -0.636263 -0.101022 
0.868456 -0.614167 -0.0240776 0.869527 -0.626154 -0.022672 0.85812 -0.625495 -0.0169078 
0.858492 -0.609296 -0.0197442 0.870623 -0.641023 -0.0208091 0.859223 -0.640458 -0.0150333 
0.363492 0 0.00433131 0.364153 -0.0144606 0.00674974 0.983713 -0.392872 -0.126881 
0.979486 -0.375409 -0.12822 0.980211 -0.375539 -0.133389 0.983562 -0.3902 -0.132521 
0.876084 -0.359237 -0.103637 0.891409 -0.359081 -0.1084 0.977637 -0.360215 -0.129866 
0.979498 -0.359322 -0.135359 0.857731 -0.250504 -0.11301 0.8586 -0.265686 -0.111203 
0.879766 -0.264569 -0.117824 0.878641 -0.249944 -0.119469 0.748964 -0.015726 -0.112279 
0.747974 0 -0.114048 0.73436 0 -0.110011 0.735172 -0.0153131 -0.108202 
0.879068 -0.140052 -0.134534 0.875821 -0.124978 -0.135598 0.864711 -0.120442 -0.132863 
0.858227 -0.125528 -0.130182 0.858254 -0.141161 -0.127998 0.890863 0 -0.139891 
0.890643 -0.0153129 -0.137502 0.884136 -0.0201746 -0.132921 0.875096 -0.0154762 -0.128287 
0.872336 0 -0.129103 0.770164 -0.0146875 -0.118771 0.769737 0 -0.120623 
0.854146 -0.0162353 -0.115993 0.852876 0 -0.117853 0.875564 -0.234498 -0.120629 
0.864522 -0.229922 -0.117881 0.858001 -0.234982 -0.115203 0.764428 -0.875549 0.0102408 
0.764547 -0.89116 0.0129269 0.770918 -0.870437 0.00696398 0.769597 -0.858791 0.00538281 
0.852717 -0.754834 0.00693702 0.859186 -0.749832 0.00279821 0.853791 -0.766819 0.00835003 
0.625476 -0.640729 0.0194904 0.614539 -0.636147 0.0224687 0.639069 -0.625492 0.0125209 
0.639276 -0.609972 0.0098915 0.640123 -0.640587 0.0145217 0.267602 -0.376113 0.139186 
0.267616 -0.375288 0.12401 0.259669 -0.361068 0.122604 0.252748 -0.355571 0.127703 
0.25213 -0.356396 0.138082 0.263108 -0.361785 0.14485 0.485479 -0.359168 0.0211474 
0.485544 -0.359348 0.111504 0.271823 -0.369996 0.115674 0.268998 -0.359459 0.112821 
0.271859 -0.38494 0.128325 0.272111 -0.384852 0.135788 0.14415 -0.140128 0.113215 
0.139827 -0.125577 0.111225 0.123762 -0.141538 0.126571 0.375676 -0.124906 0.126648 
0.376294 -0.140198 0.127729 0.355529 -0.140614 0.134613 0.354569 -0.125891 0.133511 
0.379327 -0.139874 0.0221798 0.392179 -0.139943 0.0178371 0.36501 -0.120279 0.0238511 
0.363769 -0.108592 0.0223757 0.353868 -0.113767 0.132669 0.360486 -0.108915 0.130121 
0.374804 -0.109389 0.125521 0.550954 -0.499359 0.0214093 0.563786 -0.49944 0.0170187 
0.562653 -0.484318 0.0149307 0.547607 -0.484371 0.0201031 0.566595 -0.436863 0.00583033 
0.545859 -0.438006 0.0131333 0.547106 -0.453031 0.0151584 0.561344 -0.453653 0.0103734 
0.567841 -0.448549 0.00731041 0.954071 -0.937242 -0.0462404 0.941104 -0.937458 -0.0417132 
0.942333 -0.952043 -0.0399242 0.955051 -0.952477 -0.0442741 1.00511 -0.993704 -0.0554618 
1.00381 -0.983257 -0.0565926 0.982899 -0.983958 -0.049204 0.982652 -0.995511 -0.0473681 
0.999363 -1 -0.0472614 0.933345 -0.93761 -0.00521801 0.952683 -0.937582 -0.0157305 
0.952709 -0.953036 -0.0130737 0.9463 -0.958002 -0.00874661 0.936473 -0.95309 -0.00426692 
0.548278 -0.0618976 -0.0449036 0.561608 -0.0629491 -0.048912 0.561659 -0.0472078 -0.0511629 
0.547247 -0.0466737 -0.0468178 0.517363 0 -0.0443744 0.505241 0 -0.040599 
0.505531 -0.0110854 -0.0390206 0.516545 -0.0156075 -0.0417927 0.563176 -0.515638 0.0199421 
0.552215 -0.511034 0.0229328 0.4386 -0.499471 0.0635131 0.452276 -0.500399 0.058194 
0.458795 -0.495192 0.0545003 0.457306 -0.483756 0.0528141 0.436922 -0.484683 0.0610804 
0.558512 -0.0469154 0.0415045 0.561472 -0.0624401 0.0423444 0.547861 -0.0621454 0.0486413 
0.546537 -0.047012 0.0470729 1.00818 -0.625314 -0.108329 1.00733 -0.609102 -0.110258 
0.702181 -0.750438 0.0108609 0.68836 -0.749776 0.015888 0.689514 -0.764862 0.0182056 
0.702341 -0.766043 0.01362 0.692227 -0.795948 0.0228388 0.693537 -0.807604 0.0244307 
0.704339 -0.812271 0.0211518 0.704881 -0.796106 0.0180452 0.699347 -0.500004 0.0420299 
0.687649 -0.499844 0.047473 0.686468 -0.484811 0.0457631 0.698113 -0.48536 0.0404035 
0.687141 -0.265388 0.0124426 0.684022 -0.249912 0.0115206 0.703807 -0.249645 0.00177296 
0.7039 -0.265219 0.00419458 0.697258 -0.27022 0.00824536 0.814526 -0.936755 0.00258541 
0.801874 -0.936296 0.00716653 0.802899 -0.948192 0.00887136 0.81378 -0.952876 0.00570626 
1.00023 -0.812057 -0.0653613 0.979221 -0.813548 -0.0530687 0.97811 -0.801532 -0.054569 
0.984582 -0.796577 -0.0591555 0.99684 -0.796721 -0.0661489 0.750618 -0.812523 0.00412282 
0.765173 -0.812437 -0.000977187 0.764097 -0.797354 -0.00302337 0.751202 -0.796339 0.00124552 
0.750746 -0.515626 -0.0421903 0.751449 -0.499384 -0.0447926 0.738522 -0.499354 -0.0406757 
0.739711 -0.511069 -0.039328 0.688551 -0.687358 0.00547002 0.691868 -0.702377 0.00669483 
0.704727 -0.702437 0.00236163 0.70363 -0.687286 0.000366469 0.816628 -0.561867 -0.0563577 
0.813346 -0.546826 -0.0575034 0.802307 -0.54228 -0.0546379 0.795812 -0.547365 -0.0518275 
0.795888 -0.562985 -0.0495702 0.79699 -0.51537 -0.00286767 0.79368 -0.499803 -0.00361737 
0.813187 -0.499685 -0.013869 0.813266 -0.515218 -0.0114301 0.806662 -0.520196 -0.00717058 
0.764757 -0.500441 -0.0488506 0.765921 -0.515508 -0.0470185 0.483232 -0.188022 -0.00520946 
0.483289 -0.203664 -0.00269092 0.504043 -0.20251 -0.00990914 0.5007 -0.187509 -0.0112104 
0.489726 -0.182915 -0.00823784 0.75044 -0.484159 -0.0466339 0.735243 -0.484326 -0.0417876 
0.74842 -0.4536 -0.0503027 0.748665 -0.43809 -0.0525683 0.734328 -0.437525 -0.048098 
0.735102 -0.452837 -0.046184 0.744155 -0.317088 -0.0073349 0.734038 -0.312256 -0.00313771 
0.730923 -0.296776 -0.0040619 0.750685 -0.296544 -0.0138287 0.750777 -0.31209 -0.0114058 
0.812175 -0.484772 -0.0157164 0.792392 -0.484787 -0.00533636 0.764816 -0.484699 -0.0511103 
0.755196 -0.433026 -0.055355 0.769295 -0.453057 -0.0570041 0.766213 -0.437613 -0.0582041 
0.796653 -0.437343 -0.0151355 0.807999 -0.437917 -0.0209958 0.809287 -0.452933 -0.0192773 
0.796736 -0.452928 -0.012694 0.765244 -0.31226 -0.0187779 0.762146 -0.296773 -0.0196551 
0.750069 -0.0154174 -0.059174 0.743588 -0.0203418 -0.0548664 0.733775 -0.0154963 -0.0503574 
0.730811 0 -0.0511651 0.750298 0 -0.0614732 0.761146 0 -0.0672137 
0.762557 -0.0153633 -0.0658126 0.765361 -0.0623617 -0.0597563 0.758896 -0.067314 -0.0554529 
0.749079 -0.0624145 -0.0509504 0.745996 -0.0469197 -0.0518196 0.765392 -0.0468897 -0.062304 
0.812715 -0.187175 -0.0651499 0.81228 -0.203144 -0.0622759 0.79289 -0.203161 -0.0517716 
0.791577 -0.188537 -0.0534487 0.797416 -0.995476 0.0194837 0.812151 -1 0.0189053 
0.811845 -0.984043 0.0118678 0.797922 -0.983059 0.0169465 0.766109 -0.749714 0.0481219 
0.766093 -0.765318 0.0503314 0.759403 -0.770328 0.0540649 0.749082 -0.765542 0.0578131 
0.746035 -0.75008 0.0570081 0.563466 -0.687335 0.0514016 0.552825 -0.682563 0.0549457 
[...]
POINT_DATA 6431
SCALARS std float
LOOKUP_TABLE default
0.0103289 0.010387 0.010275 0.0101484 0.0102843 0.0103575 0.0103258 0.0102322 0.0102216 
0.0102433 0.010037 0.0101409 0.0100436 0.00993148 0.0435179 0.0432652 0.0456479 0.04473 
0.0100728 0.0101073 0.00995549 0.0422494 0.0417656 0.0100253 0.0099847 0.0103063 0.0100319 
0.0438966 0.0447734 0.0455889 0.0461495 0.0464349 0.0456585 0.0444015 0.0462137 0.0102311 
0.0103009 0.0102352 0.0105164 0.0178099 0.0220468 0.0225738 0.0177498 0.0103416 0.0100518 
0.00986726 0.0106331 0.0130697 0.0123352 0.0127404 0.013056 0.046505 0.0456227 0.0454777 
0.0102969 0.0103628 0.0103613 0.0103709 0.0103331 0.0101621 0.0453694 0.0456125 0.0101207 
0.0100622 0.0101324 0.0100538 0.0102931 0.0101715 0.0100574 0.00999339 0.0101451 0.0100931 
0.0130832 0.012984 0.0131438 0.0129691 0.0102578 0.0103383 0.0104059 0.0104212 0.010158 
0.0100831 0.0456279 0.0449621 0.0434362 0.0445785 0.0101264 0.0102959 0.0462326 0.0447634 
0.0453725 0.0462121 0.0473367 0.0136577 0.0136471 0.0162573 0.0326025 0.0355497 0.0230466 
0.0332442 0.0314653 0.0315899 0.0327004 0.0335648 0.0103777 0.0102561 0.010176 0.0329963 
0.0309987 0.0205628 0.0175943 0.0328674 0.0323056 0.0329948 0.0332473 0.0328853 0.0329493 
0.0102662 0.0101633 0.043496 0.0454863 0.0385814 0.0366305 0.012404 0.0131334 0.0472296 
0.0398354 0.0120466 0.0121352 0.0128485 0.0124677 0.0104502 0.010509 0.0103931 0.01033 
0.0115436 0.0112757 0.0107646 0.0109275 0.0111327 0.0143758 0.0142585 0.0145534 0.0153119 
0.0156696 0.010428 0.010398 0.0156088 0.0153789 0.012302 0.0119192 0.0114034 0.0103058 
0.0104379 0.0101433 0.0103381 0.0360987 0.0349017 0.0362028 0.0100822 0.0104394 0.0101516 
0.0102692 0.0102595 0.0479547 0.0248989 0.028386 0.0345525 0.049667 0.0573755 0.0101179 
0.044677 0.0184837 0.0124368 0.0302236 0.0514509 0.00995757 0.0101797 0.0101044 0.0143663 
0.0150275 0.0149819 0.0142275 0.0101262 0.0101839 0.0100038 0.0101159 0.0140321 0.0140628 
0.0142272 0.0102065 0.0100482 0.0101743 0.0102135 0.0102925 0.010209 0.0104099 0.010399 
0.0101488 0.0111173 0.0109379 0.0111716 0.0115529 0.022438 0.0159911 0.0150893 0.0243623 
0.0300658 0.0390918 0.0383328 0.0382217 0.039228 0.0394837 0.0102022 0.0100529 0.0101541 
0.0100638 0.0100036 0.0101996 0.010114 0.0098938 0.0102266 0.0101926 0.0100186 0.0105527 
0.0103175 0.0102981 0.0101678 0.0151 0.0155953 0.0151157 0.0151708 0.0299703 0.029179 
0.0103084 0.0103519 0.0103781 0.0104733 0.0102208 0.0104276 0.0105526 0.0103785 0.0417685 
0.042207 0.0427918 0.0424084 0.0421541 0.0413733 0.0420834 0.0430175 0.0433011 0.0104272 
0.0103813 0.0107572 0.0106979 0.0323332 0.0309403 0.0306249 0.0308247 0.0320021 0.0104896 
0.0103527 0.0102181 0.0102249 0.0104458 0.010576 0.0103625 0.0103901 0.0103624 0.0101311 
0.0101875 0.0102524 0.0103916 0.0107263 0.0105844 0.0105309 0.0105623 0.0401843 0.0398832 
0.0398668 0.0396754 0.0400375 0.0105537 0.0105999 0.0103216 0.0100704 0.00987981 0.0100542 
0.00999038 0.0105936 0.0104846 0.0104337 0.0103131 0.0102369 0.0103435 0.0458475 0.0447787 
0.0448777 0.046911 0.0490767 0.0400662 0.0409267 0.0105771 0.0103231 0.010479 0.0104793 
0.0434677 0.0432053 0.0423883 0.04324 0.0486249 0.0482576 0.0162001 0.0162508 0.0158224 
0.0163034 0.0159998 0.01563 0.0160202 0.0179802 0.0182384 0.0177912 0.0169487 0.0171527 
0.0347968 0.0375477 0.037288 0.0352727 0.0273093 0.0371859 0.0171503 0.0137766 0.0452848 
0.0443269 0.0439073 0.043918 0.0452605 0.0104514 0.0104264 0.0104201 0.0104196 0.0103789 
0.0100977 0.0103833 0.010356 0.0103411 0.0436244 0.0435516 0.0428669 0.043469 0.0421397 
0.0426406 0.0105015 0.0102651 0.0101737 0.046633 0.0466362 0.0447159 0.045506 0.0463757 
0.0458129 0.0429362 0.04464 0.0100748 0.0101794 0.0101238 0.0100547 0.010212 0.0100065 
0.0101901 0.0101565 0.00996119 0.010148 0.0101499 0.0101824 0.0100422 0.0100469 0.0108784 
0.0101477 0.0101918 0.011779 0.0138773 0.0133716 0.0133271 0.0135436 0.010111 0.0102452 
0.0103757 0.0100521 0.0100941 0.0102523 0.010014 0.0101352 0.00999704 0.0100943 0.0102366 
0.0101095 0.0101591 0.0102132 0.0422574 0.0425723 0.0418656 0.0421724 0.0427657 0.0108984 
0.0155641 0.0154077 0.0120035 0.0420507 0.0419548 0.0414062 0.0422731 0.0424661 0.0416939 
0.0422742 0.0423023 0.0413479 0.0102199 0.0100661 0.0102998 0.0101827 0.0102652 0.0439586 
0.0440402 0.0446699 0.0450217 0.0451323 0.0457099 0.0108475 0.0110728 0.0361162 0.0344203 
0.0345388 0.0358378 0.0386059 0.037374 0.0107656 0.0108691 0.0109966 0.0110526 0.0111734 
0.0135079 0.0139952 0.0118434 0.0119312 0.0370435 0.0363631 0.0106587 0.0105545 0.0112618 
0.0113601 0.0112656 0.0110102 0.0110107 0.0355045 0.0360931 0.0370197 0.0366044 0.0353114 
0.0278162 0.0264253 0.0192037 0.018755 0.0231114 0.0152623 0.0138721 0.0136979 0.0148846 
0.0381247 0.0383443 0.0386737 0.0385191 0.0324331 0.0333015 0.0326544 0.0316881 0.0350774 
0.0364648 0.0341121 0.0340045 0.0244679 0.0189348 0.0384236 0.0385035 0.010022 0.0100173 
0.010035 0.0101218 0.00997168 0.0100669 0.0100418 0.00997193 0.0101092 0.00999363 0.0101483 
0.0175292 0.0171509 0.0155812 0.0147466 0.0147798 0.0439222 0.0442842 0.0441355 0.0440201 
0.0437255 0.0140221 0.0154514 0.0152932 0.01428 0.0365414 0.0350575 0.0388261 0.0386859 
0.0396393 0.0143041 0.0157144 0.015146 0.0161556 0.0175758 0.01802 0.041448 0.0420346 
0.0416513 0.0408773 0.0411259 0.0379073 0.0186098 0.016626 0.0132395 0.0131102 0.0392608 
0.0399259 0.0395449 0.0141116 0.043223 0.0430153 0.0424734 0.0100583 0.0101522 0.0101932 
0.0103158 0.0101754 0.0100412 0.0100469 0.0102946 0.00996816 0.0101057 0.0100948 0.0101373 
0.0100167 0.0101366 0.0101732 0.0100493 0.010035 0.0102822 0.0101347 0.0101132 0.0102922 
0.0102442 0.0162074 0.0156542 0.0168745 0.0175001 0.0164097 0.0154994 0.0148285 0.0506965 
0.0503508 0.0507203 0.0505018 0.0491175 0.0482455 0.0493568 0.0502131 0.0104427 0.010321 
0.0102521 0.010368 0.0103204 0.0100737 0.0102744 0.010283 0.0102964 0.0102031 0.0101878 
0.0475868 0.0479184 0.0484446 0.0481821 0.0480427 0.0480715 0.0481397 0.0474206 0.0498929 
0.0482277 0.0100694 0.0101862 0.01032 0.0102738 0.0103398 0.0103109 0.0101806 0.0104489 
0.0106464 0.0103654 0.0104893 0.0101634 0.0105196 0.010203 0.010216 0.0435969 0.0448368 
0.0445728 0.0102022 0.0101782 0.0103052 0.0456604 0.0101641 0.0101653 0.0105298 0.0107545 
0.00987823 0.0100548 0.0100914 0.0102541 0.0100647 0.0147217 0.0155495 0.0152942 0.0145898 
0.00998054 0.0101279 0.0101159 0.0130589 0.013068 0.0132151 0.0133253 0.0133069 0.0159868 
0.0155423 0.0187718 0.017883 0.0169342 0.0174891 0.0181786 0.015837 0.0164453 0.0188696 
0.0178433 0.0294519 0.0184194 0.0203948 0.0303511 0.0310467 0.0260437 0.0215087 0.0105126 
0.0111016 0.0154933 0.0199258 0.0104167 0.0101195 0.0105144 0.0338619 0.0349479 0.0327142 
0.0362786 0.0104134 0.0136378 0.0149428 0.0171868 0.0133774 0.0116567 0.0406561 0.0368684 
0.0346252 0.0382473 0.0366705 0.0347071 0.045407 0.0439279 0.0431922 0.0432813 0.0442002 
0.0102864 0.0102888 0.0103034 0.01074 0.0103777 0.0102196 0.0421943 0.0419598 0.0426756 
0.0419728 0.0421759 0.0423712 0.0425933 0.0426404 0.0421819 0.0423602 0.0414833 0.0428175 
0.0426321 0.0417981 0.0386589 0.0391083 0.0406407 0.0399517 0.0415805 0.0416065 0.0411504 
0.0419769 0.0421868 0.0424058 0.0425882 0.0465938 0.0453476 0.0415239 0.0417312 0.0415738 
0.0422395 0.0426762 0.0107188 0.010345 0.0102622 0.0102044 0.0103816 0.0103648 0.0103468 
0.0105835 0.0101882 0.0104346 0.0109938 0.0105096 0.0110617 0.0111051 0.010919 0.0110273 
0.0112535 0.0320341 0.0309498 0.0313141 0.0314922 0.0309489 0.0299373 0.029731 0.0120352 
0.0116474 0.0112095 0.0113259 0.0118595 0.0104788 0.0106214 0.0106143 0.0108829 0.0105318 
0.0105942 0.0104869 0.0107274 0.0143055 0.0129744 0.0120076 0.0353951 0.034097 0.0332803 
0.0107794 0.010436 0.0107418 0.0101823 0.0102436 0.0104431 0.0105459 0.0104917 0.0105845 
0.0101987 0.0101653 0.0100818 0.0105239 0.0101803 0.0100898 0.0103655 0.0104024 0.0103902 
0.010328 0.0101877 0.0102005 0.0102789 0.0104148 0.011266 0.0109205 0.0112573 0.0108237 
0.0109341 0.0111883 0.0110394 0.0305799 0.0306606 0.0310638 0.0308535 0.0307585 0.0309066 
0.030985 0.032025 0.0307172 0.0320659 0.0322697 0.0325557 0.031926 0.0105179 0.0107689 
0.0109719 0.0322378 0.0325635 0.0320967 0.0311765 0.0328017 0.0318979 0.0327423 0.0323302 
0.0313653 0.0319236 0.0321504 0.0105154 0.0108056 0.0106833 0.0107759 0.0108065 0.0392217 
0.0394495 0.037565 0.0379454 0.0391517 0.039289 0.0388204 0.0104392 0.010705 0.0105974 
0.0106162 0.010568 0.0103236 0.010325 0.0106614 0.0109776 0.0106859 0.0107603 0.0106298 
0.0328194 0.0341856 0.03369 0.0109413 0.0107467 0.010731 0.010665 0.0104266 0.010634 
0.0106447 0.0104581 0.0107332 0.0335095 0.0105881 0.0101362 0.0101273 0.0101473 0.0100889 
0.0100691 0.0102912 0.0103795 0.0104829 0.0105706 0.0105875 0.0103304 0.0102558 0.0101249 
0.0101933 0.0100446 0.0103566 0.0106722 0.0105207 0.010542 0.010468 0.0102771 0.0102875 
0.0104126 0.0101406 0.0102057 0.010296 0.0102583 0.0103251 0.010253 0.0100389 0.010153 
0.0101702 0.0101426 0.010354 0.0102535 0.0105035 0.0400096 0.0434498 0.0434338 0.0109852 
0.0111007 0.0110855 0.0108571 0.0108929 0.0442415 0.0443794 0.0440992 0.0131496 0.012704 
0.0125912 0.0132477 0.043896 0.0440571 0.0463925 0.0473443 0.0468952 0.045929 0.036021 
0.0353717 0.0368348 0.0377648 0.0439454 0.0428657 0.0436126 0.0443551 0.0137953 0.0135814 
0.0126693 0.039202 0.0392279 0.0375516 0.0461805 0.0460226 0.0234684 0.0232052 0.0197861 
0.0178318 0.0184541 0.0183529 0.0209835 0.0238626 0.0121928 0.0122852 0.0455971 0.0469276 
0.0476492 0.0437018 0.0446876 0.0447521 0.0435508 0.0106736 0.010665 0.0107462 0.0105189 
0.0105591 0.0121978 0.0424021 0.0425454 0.0437809 0.0443251 0.0471243 0.0103052 0.00989075 
0.0101977 0.00994943 0.010162 0.010267 0.0101203 0.010274 0.0104848 0.0101757 0.0102521 
0.0103621 0.0101394 0.0101446 0.0103084 0.0101765 0.0100507 0.0158641 0.0160428 0.0159451 
0.0158384 0.0172374 0.0181555 0.0176344 0.0169333 0.0237126 0.0220004 0.0218029 0.0224271 
0.0244017 0.0191442 0.0185643 0.0193269 0.0103481 0.0104061 0.0102589 0.0102579 0.0104627 
0.0103025 0.0188537 0.0178707 0.0103066 0.0103952 0.0102123 0.0100456 0.0100173 0.0102094 
0.0102344 0.0101499 0.0102819 0.0103507 0.0266535 0.0263059 0.0101115 0.0102193 0.0119669 
0.0115593 0.011488 0.0114855 0.0106665 0.0106533 0.0109635 0.0106604 0.0115631 0.0120017 
0.0162477 0.0182398 0.0188226 0.0173299 0.01186 0.01175 0.0112619 0.011358 0.0113769 
0.0113291 0.0111468 0.011173 0.0296275 0.0302514 0.0271788 0.0276603 0.034991 0.0346738 
0.0366587 0.0324333 0.0328016 0.0239006 0.0244877 0.0225985 0.0220718 0.0170749 0.0177654 
0.0173002 0.0171376 0.0103806 0.0103383 0.0193812 0.019417 0.010565 0.0105453 0.0106855 
0.0105887 0.0105021 0.0255651 0.0249794 0.0226791 0.0220608 0.0203266 0.0208062 0.0280712 
0.0308723 0.0254798 0.0253469 0.0125115 0.0123233 0.0126859 0.0337224 0.0357233 0.0321859 
0.0317091 0.0105636 0.0109898 0.0108872 0.0109979 0.0265792 0.0275347 0.0109851 0.010894 
0.0107103 0.0374542 0.0422401 0.0420886 0.0332688 0.0318046 0.027382 0.0110854 0.0111386 
0.0112597 0.0111329 0.0402255 0.0403507 0.0110157 0.0106683 0.0489378 0.0272533 0.0148373 
0.0162051 0.0102723 0.0104233 0.0104778 0.0104262 0.0505005 0.0510539 0.0514096 0.051336 
0.0512631 0.0494057 0.0496616 0.0379445 0.0370954 0.0352231 0.0342797 0.0355223 0.0459674 
0.0450531 0.0463745 0.0473187 0.0500067 0.0504822 0.0377029 0.0369322 0.0350192 0.0484546 
0.0487598 0.0511186 0.047805 0.044145 0.0447267 0.0484742 0.0103889 0.0103279 0.0102464 
0.0102449 0.0361263 0.0420012 0.0383415 0.0371823 0.0364118 0.0356223 0.0103668 0.010755 
0.0105938 0.010349 0.0395967 0.0423161 0.0388888 0.0463745 0.0385605 0.0387732 0.0390174 
0.0102719 0.0103016 0.0100237 0.0417518 0.0392429 0.0462938 0.0446504 0.0445222 0.0445888 
0.0473569 0.0479075 0.0469756 0.0462126 0.042501 0.042216 0.0441001 0.0449739 0.0432091 
0.0437627 0.0451675 0.0444751 0.0477564 0.0487259 0.0490067 0.0103276 0.0436738 0.0448249 
0.0466931 0.0452637 0.04485 0.0428578 0.0103559 0.0102906 0.0102313 0.0101538 0.0102674 
0.0102354 0.0100912 0.010109 0.0431943 0.0443981 0.0444666 0.0425308 0.0264291 0.0281514 
0.0307292 0.0291211 0.0451468 0.0446565 0.0387757 0.0392959 0.0429965 0.0440875 0.0448884 
0.0417257 0.0383151 0.0102409 0.01037 0.0103553 0.0102586 0.0103121 0.0101378 0.0103311 
0.0100263 0.0102956 0.0102365 0.0103643 0.0104026 0.0101356 0.0102472 0.0103616 0.0100344 
0.0102036 0.0156436 0.0168049 0.0175175 0.0162737 0.0170255 0.0110743 0.0103471 0.0116868 
0.0164328 0.0214675 0.0172324 0.0158675 0.0153145 0.0158957 0.0141986 0.0136269 0.0144221 
0.0147645 0.0179371 0.0162925 0.0175392 0.0162849 0.0158136 0.0167541 0.0168658 0.0203846 
0.0136959 0.0191469 0.0155876 0.0135201 0.0137692 0.0137121 0.0140402 0.0134993 0.0141422 
0.015137 0.0148738 0.0101497 0.0101246 0.01006 0.0100645 0.0101722 0.0100528 0.0101789 
0.0102152 0.00999117 0.0100628 0.0100902 0.00996756 0.0103239 0.0101646 0.0102654 0.0104532 
0.0100753 0.0100134 0.0103485 0.0102167 0.010442 0.00994915 0.0102185 0.0100522 0.0103518 
0.0101716 0.017048 0.0143439 0.0159245 0.0194024 0.022132 0.0322064 0.0153233 0.0164877 
0.0162488 0.0107101 0.011112 0.0104376 0.0181652 0.0195182 0.0154155 0.0144906 0.0215844 
0.0188995 0.0168804 0.0168033 0.0103586 0.011986 0.0134301 0.0130542 0.0125923 0.012564 
0.0138336 0.0128573 0.0130738 0.0131576 0.0130115 0.0137449 0.0132054 0.0198399 0.0102672 
0.0100655 0.0102189 0.0101505 0.0100571 0.00997299 0.01004 0.0102096 0.012557 0.0127273 
0.0128408 0.0126882 0.0143889 0.0132813 0.0135811 0.0129058 0.0125562 0.0126522 0.01272 
0.012636 0.0125182 0.0128008 0.0131708 0.012684 0.0125561 0.012929 0.0131323 0.0133062 
0.0127185 0.0125364 0.0125249 0.0161945 0.0158674 0.0181347 0.0192685 0.019206 0.0180706 
0.0180617 0.0102544 0.0100873 0.010214 0.0246607 0.0257434 0.0209667 0.0201452 0.0214308 
0.0203945 0.0156737 0.016612 0.0185023 0.0102553 0.010291 0.00989217 0.0101931 0.0101691 
0.010337 0.0103087 0.0100858 0.0100779 0.00995197 0.0101888 0.0103401 0.00995599 0.0102704 
0.0100289 0.0101034 0.0103223 0.00989962 0.0100819 0.0100715 0.0103356 0.02672 0.0240504 
0.0255252 0.027943 0.0375815 0.0371847 0.0333483 0.0341121 0.036939 0.0355857 0.0312736 
0.0323684 0.0103806 0.0101887 0.0102181 0.0103492 0.010121 0.010147 0.010304 0.010074 
0.010222 0.0101927 0.0329743 0.0333042 0.035273 0.0355701 0.0344667 0.0368281 0.0349116 
0.0352346 0.0366391 0.036013 0.0102303 0.0102023 0.00997597 0.0102342 0.010298 0.0102123 
0.0104084 0.0354297 0.0331126 0.0348825 0.0361709 0.0101935 0.0101873 0.0107474 0.0112886 
0.0132353 0.0130439 0.0439513 0.0438889 0.0448607 0.0453371 0.0105 0.0102895 0.0103092 
0.0104873 0.0104433 0.0102749 0.0105002 0.0104086 0.0101267 0.0103447 0.0103239 0.0103268 
0.0101579 0.0103418 0.0102471 0.00998008 0.0102613 0.0100935 0.0102863 0.0100354 0.0101517 
0.0099915 0.0101607 0.0100769 0.0101506 0.0100158 0.0469926 0.0423089 0.0471593 0.0466923 
0.0455287 0.0465191 0.0482333 0.0436236 0.044407 0.0102039 0.0100289 0.0100554 0.010192 
0.0410422 0.0406221 0.0397109 0.0411162 0.0431641 0.0418625 0.0392489 0.0129802 0.0111882 
0.0110735 0.0113146 0.0127676 0.0291989 0.0270683 0.0346497 0.0244341 0.0406442 0.0406732 
0.0400248 0.0402189 0.00999285 0.00993995 0.010135 0.0101646 0.0103682 0.0101749 0.0103205 
0.0103253 0.0102139 0.010126 0.0101921 0.0476178 0.0482606 0.0462526 0.0450105 0.0472713 
0.0473434 0.0116765 0.0134451 0.0132371 0.0116786 0.011533 0.0359681 0.0349186 0.0352277 
0.0355545 0.0101289 0.0102503 0.010141 0.0103094 0.0281952 0.0306883 0.023202 0.0192298 
0.0185921 0.0167034 0.0234459 0.017691 0.0186705 0.0232672 0.0121889 0.0122679 0.0119606 
0.0118158 0.0123021 0.0120129 0.0332284 0.032549 0.0325204 0.0339516 0.0334319 0.0100284 
0.0100314 0.0102244 0.0100622 0.0100641 0.0103566 0.0100542 0.0102626 0.00990128 0.0102055 
0.0104652 0.0103488 0.0102734 0.010198 0.0104553 0.0101818 0.0100993 0.0103759 0.010242 
0.0140528 0.013895 0.0386099 0.0389544 0.0387663 0.0393497 0.0388765 0.0333908 0.0338351 
0.0399957 0.0176397 0.0241183 0.0198634 0.045915 0.0455388 0.0456351 0.0415572 0.043261 
0.0436787 0.0435069 0.0126184 0.0120831 0.0119855 0.0124361 0.0118848 0.011557 0.0117591 
0.0198704 0.0214076 0.0200442 0.0189053 0.0185076 0.0168344 0.0174666 0.0148757 0.0145683 
0.0437548 0.0456492 0.0459332 0.0441499 0.0387374 0.0397872 0.0410899 0.0410083 0.0386597 
0.0519162 0.0520766 0.0510374 0.0513208 0.0506937 0.051351 0.0497967 0.0507399 0.0505339 
0.0471701 0.0478168 0.0474516 0.0464249 0.0468801 0.0104309 0.0102249 0.0102638 0.0101728 
0.0102029 0.0102461 0.0453318 0.0460952 0.0455475 0.0455352 0.0102532 0.0101031 0.0101821 
0.00992817 0.0104582 0.0102934 0.0101876 0.00996443 0.0100407 0.0101455 0.0101932 0.0100297 
0.0100292 0.00993752 0.0158998 0.0154111 0.0153946 0.016464 0.0128718 0.0129171 0.0133209 
0.0129788 0.0154629 0.0150912 0.0151766 0.0156895 0.0158779 0.0271604 0.0248591 0.0253785 
0.0286328 0.0254405 0.0268799 0.0221373 0.0214429 0.030636 0.0104576 0.0103447 0.0102966 
0.0106128 0.0104098 0.0104535 0.0103953 0.025226 0.0306124 0.0253368 0.0236995 0.024665 
0.0268839 0.0293463 0.0406834 0.0426424 0.0441776 0.0434005 0.0438357 0.0502675 0.0489803 
0.0377761 0.0408526 0.03901 0.0354826 0.0292667 0.0330352 0.01015 0.0105399 0.0104925 
0.0103218 0.0103517 0.0104784 0.0101341 0.0103908 0.010226 0.0100714 0.0101603 0.049182 
0.0495555 0.0508481 0.0500378 0.0525688 0.0507913 0.0428245 0.0428186 0.0416622 0.0440228 
0.043395 0.0102817 0.0101909 0.0100431 0.0102296 0.0417698 0.0420731 0.0395851 0.0410459 
0.0351303 0.0359617 0.0380725 0.0414171 0.0453323 0.0448874 0.0445169 0.0439196 0.0460576 
0.0474557 0.0468123 0.0442509 0.0448428 0.0280896 0.0144158 0.0120375 0.0114839 0.0104999 
0.0102751 0.0104105 0.0104895 0.0313219 0.030494 0.0103916 0.0104099 0.010208 0.0101992 
0.0100909 0.0102894 0.0103913 0.0103838 0.0102994 0.0104088 0.0101889 0.0102603 0.0102998 
0.0102519 0.0102923 0.0102421 0.0104205 0.0100124 0.0101977 0.0104486 0.0104075 0.0103169 
0.0104266 0.0105716 0.0169033 0.0175592 0.0148537 0.0146454 0.0175283 0.0146538 0.0298632 
0.0311637 0.0328249 0.0142026 0.015878 0.0156801 0.0142723 0.0141481 0.0203178 0.0315002 
0.0319594 0.032107 0.031618 0.0315784 0.0323124 0.0390352 0.0388516 0.0388032 0.0387198 
0.0379949 0.0381572 0.0382884 0.0395275 0.0390324 0.03343 0.0339033 0.0337517 0.0340532 
0.0330898 0.033822 0.0101532 0.00995356 0.0101968 0.010361 0.0100427 0.0103203 0.0103311 
0.0102426 0.0104438 0.0104002 0.0101813 0.0104062 0.0102167 0.0102701 0.0104113 0.0102684 
0.0383399 0.0410648 0.01159 0.01192 0.0119028 0.0116498 0.011985 0.0121066 0.0120179 
0.0117506 0.0412799 0.040824 0.0404593 0.0405977 0.0139769 0.0134427 0.0125819 0.0461808 
0.0451643 0.047929 0.0284186 0.0398944 0.0302725 0.0118932 0.0124545 0.0121931 0.0113108 
0.0115538 0.0109826 0.0106258 0.0106725 0.0108242 0.047025 0.0453277 0.0455487 0.0472672 
0.0469732 0.0116427 0.0115543 0.0203657 0.0205808 0.0221721 0.0219761 0.024321 0.0242847 
0.0226798 0.0245814 0.0229964 0.0101117 0.0102506 0.0105416 0.0103244 0.0103509 0.010343 
0.0103431 0.0101898 0.0102291 0.0104636 0.0102213 0.0102237 0.0105008 0.0103413 0.0288792 
0.030395 0.0297467 0.026692 0.0267167 0.0271208 0.0287785 0.0103283 0.0103922 0.0105357 
0.0105844 0.0103348 0.0104569 0.0113829 0.0117927 0.011204 0.0110842 0.0109748 0.0110013 
0.0122878 0.0116058 0.010862 0.0113129 0.0115846 0.0114879 0.0113747 0.01366 0.0135417 
0.0225901 0.023317 0.0245445 0.0261687 0.0257681 0.037215 0.0382263 0.0364552 0.0354124 
0.0209654 0.0198231 0.0216966 0.022876 0.0103206 0.0104581 0.0104407 0.0104792 0.0103622 
0.0103934 0.0104428 0.0155398 0.0155454 0.0158638 0.0120072 0.0116149 0.0116324 0.0122028 
0.0273751 0.029187 0.0331177 0.0321467 0.0325818 0.0293986 0.0135971 0.0140143 0.0136964 
0.0128656 0.0129698 0.0107029 0.0105966 0.0105614 0.0106062 0.0113525 0.0103992 0.0104051 
0.0105397 0.010408 0.0104928 0.0106819 0.0103821 0.010431 0.0105657 0.0103074 0.0104213 