# vtk DataFile Version 5.1
vtk output
ASCII
DATASET POLYDATA
POINTS 6431 float
0.766286 -0.750036 -0.011355 0.755347 -0.745462 -0.00830097 0.748835 -0.750533 -0.00527803 
0.748883 -0.76618 -0.00278802 0.769617 -0.765045 -0.0100957 0.75414 -0.733751 -0.00966497 
0.733402 -0.734869 -0.00236799 0.7346 -0.749913 -0.000485181 0.499966 -0.250011 -0.00123406 
0.48644 -0.249246 0.00312489 0.485589 -0.265407 0.00590203 0.500807 -0.265284 0.000845628 
0.498893 -0.234917 -0.00308457 0.485646 -0.234043 0.00117499 0.735199 -0.249621 -0.0136303 
0.746779 -0.249796 -0.0192831 0.749842 -0.265317 -0.0183601 0.735264 -0.265182 -0.0111972 
0.514233 -0.250617 -0.00586302 0.520762 -0.245564 -0.00879717 0.519602 -0.233792 -0.0101052 
0.745618 -0.234787 -0.0210917 0.734076 -0.234612 -0.0154574 0.514812 -0.375412 0.0137069 
0.501673 -0.374272 0.0180977 0.501044 -0.390479 0.0209658 0.516061 -0.390438 0.0157275 
0.496398 -0.499805 0.119056 0.495812 -0.484586 0.118381 0.5169 -0.484346 0.112082 
0.517348 -0.499506 0.113176 0.499673 -0.390669 0.109603 0.498826 -0.375216 0.10845 
0.511886 -0.37493 0.103912 0.514718 -0.390483 0.104385 0.623767 -0.500609 -0.00312451 
0.610553 -0.499486 0.00111901 0.609941 -0.515685 0.00403657 0.625029 -0.51562 -0.00103459 
0.98852 -0.624389 -0.102319 0.999224 -0.625029 -0.105542 0.999527 -0.608836 -0.107818 
0.985409 -0.609314 -0.10341 0.376057 0 0.000263608 0.376878 -0.0148785 0.00269488 
0.389983 -0.015601 -0.00159153 0.38889 0 -0.00384057 0.892268 -0.374298 -0.106545 
0.879311 -0.374278 -0.10254 0.880477 -0.386004 -0.101229 0.891571 -0.39053 -0.104016 
0.516765 -0.515149 0.114506 0.510227 -0.519943 0.116568 0.499097 -0.515442 0.119246 
0.613318 -0.624446 0.0210539 0.626143 -0.624494 0.0167301 0.625026 -0.609362 0.0146025 
0.609959 -0.60943 0.0197021 0.488864 -0.374185 0.0225457 0.490113 -0.385871 0.0240204 
0.485969 -0.374531 0.112825 0.485467 -0.390166 0.11441 0.123764 -0.125966 0.120599 
0.129928 -0.120682 0.115282 0.126193 -0.108773 0.11369 0.116213 -0.10386 0.117712 
0.110326 -0.109025 0.123028 0.110627 -0.124627 0.128915 0.376621 -0.108661 0.0180329 
0.375984 -0.124872 0.0208786 0.391055 -0.124809 0.0157629 0.389814 -0.109782 0.0137453 
0.369136 0 0.11603 0.390028 0 0.107929 0.390746 -0.0158547 0.109525 
0.370027 -0.0161212 0.117447 0.751505 -0.889967 0.0174885 0.750309 -0.874867 0.0152857 
0.735388 -0.874858 0.0207415 0.738775 -0.889842 0.0221224 0.74899 -0.859876 0.0131121 
0.735946 -0.858679 0.0176704 0.749196 -0.37537 -0.000609729 0.750406 -0.390391 0.00115605 
0.730548 -0.390668 0.010545 0.729231 -0.375974 0.00894394 0.5005 -0.359137 0.0159092 
0.514713 -0.35978 0.0110693 0.498286 -0.359847 0.107185 0.510812 -0.360288 0.102884 
0.728317 -0.363957 0.00774725 0.734963 -0.359025 0.00380042 0.74957 -0.359161 -0.00332621 
0.875669 -0.983676 -0.0116818 0.864705 -0.979669 -0.00845626 0.858144 -0.984317 -0.00528052 
0.858996 -1 0.00324002 0.874588 -1 0.000203631 0.879002 -0.995033 -0.0109762 
0.871796 -0.749819 -0.00367345 0.891198 -0.749722 -0.0140172 0.891399 -0.765218 -0.0113618 
0.884887 -0.77019 -0.00705132 0.875144 -0.765372 -0.00284254 0.639308 -0.516232 -0.00572565 
0.645793 -0.511113 -0.00876801 0.644537 -0.499436 -0.0102879 0.870495 -0.734813 -0.00543229 
0.890125 -0.734813 -0.0158984 1.00036 -0.641148 -0.103717 0.989594 -0.636263 -0.101022 
0.868456 -0.614167 -0.0240776 0.869527 -0.626154 -0.022672 0.85812 -0.625495 -0.0169078 
0.858492 -0.609296 -0.0197442 0.870623 -0.641023 -0.0208091 0.859223 -0.640458 -0.0150333 
0.363492 0 0.00433131 0.364153 -0.0144606 0.00674974 0.983713 -0.392872 -0.126881 
0.979486 -0.375409 -0.12822 0.980211 -0.375539 -0.133389 0.983562 -0.3902 -0.132521 
0.876084 -0.359237 -0.103637 0.891409 -0.359081 -0.1084 0.977637 -0.360215 -0.129866 
0.979498 -0.359322 -0.135359 0.857731 -0.250504 -0.11301 0.8586 -0.265686 -0.111203 
0.879766 -0.264569 -0.117824 0.878641 -0.249944 -0.119469 0.748964 -0.015726 -0.112279 
0.747974 0 -0.114048 0.73436 0 -0.110011 0.735172 -0.0153131 -0.108202 
0.879068 -0.140052 -0.134534 0.875821 -0.124978 -0.135598 0.864711 -0.120442 -0.132863 
0.858227 -0.125528 -0.130182 0.858254 -0.141161 -0.127998 0.890863 0 -0.139891 
0.890643 -0.0153129 -0.137502 0.884136 -0.0201746 -0.132921 0.875096 -0.0154762 -0.128287 
0.872336 0 -0.129103 0.770164 -0.0146875 -0.118771 0.769737 0 -0.120623 
0.854146 -0.0162353 -0.115993 0.852876 0 -0.117853 0.875564 -0.234498 -0.120629 
0.864522 -0.229922 -0.117881 0.858001 -0.234982 -0.115203 0.764428 -0.875549 0.0102408 
0.764547 -0.89116 0.0129269 0.770918 -0.870437 0.00696398 0.769597 -0.858791 0.00538281 
0.852717 -0.754834 0.00693702 0.859186 -0.749832 0.00279821 0.853791 -0.766819 0.00835003 
0.625476 -0.640729 0.0194904 0.614539 -0.636147 0.0224687 0.639069 -0.625492 0.0125209 
0.639276 -0.609972 0.0098915 0.640123 -0.640587 0.0145217 0.267602 -0.376113 0.139186 
0.267616 -0.375288 0.12401 0.259669 -0.361068 0.122604 0.252748 -0.355571 0.127703 
0.25213 -0.356396 0.138082 0.263108 -0.361785 0.14485 0.485479 -0.359168 0.0211474 
0.485544 -0.359348 0.111504 0.271823 -0.369996 0.115674 0.268998 -0.359459 0.112821 
0.271859 -0.38494 0.128325 0.272111 -0.384852 0.135788 0.14415 -0.140128 0.113215 
0.139827 -0.125577 0.111225 0.123762 -0.141538 0.126571 0.375676 -0.124906 0.126648 
0.376294 -0.140198 0.127729 0.355529 -0.140614 0.134613 0.354569 -0.125891 0.133511 
0.379327 -0.139874 0.0221798 0.392179 -0.139943 0.0178371 0.36501 -0.120279 0.0238511 
0.363769 -0.108592 0.0223757 0.353868 -0.113767 0.132669 0.360486 -0.108915 0.130121 
0.374804 -0.109389 0.125521 0.550954 -0.499359 0.0214093 0.563786 -0.49944 0.0170187 
0.562653 -0.484318 0.0149307 0.547607 -0.484371 0.0201031 0.566595 -0.436863 0.00583033 
0.545859 -0.438006 0.0131333 0.547106 -0.453031 0.0151584 0.561344 -0.453653 0.0103734 
0.567841 -0.448549 0.00731041 0.954071 -0.937242 -0.0462404 0.941104 -0.937458 -0.0417132 
0.942333 -0.952043 -0.0399242 0.955051 -0.952477 -0.0442741 1.00511 -0.993704 -0.0554618 
1.00381 -0.983257 -0.0565926 0.982899 -0.983958 -0.049204 0.982652 -0.995511 -0.0473681 
0.999363 -1 -0.0472614 0.933345 -0.93761 -0.00521801 0.952683 -0.937582 -0.0157305 
0.952709 -0.953036 -0.0130737 0.9463 -0.958002 -0.00874661 0.936473 -0.95309 -0.00426692 
0.548278 -0.0618976 -0.0449036 0.561608 -0.0629491 -0.048912 0.561659 -0.0472078 -0.0511629 
0.547247 -0.0466737 -0.0468178 0.517363 0 -0.0443744 0.505241 0 -0.040599 
0.505531 -0.0110854 -0.0390206 0.516545 -0.0156075 -0.0417927 0.563176 -0.515638 0.0199421 
0.552215 -0.511034 0.0229328 0.4386 -0.499471 0.0635131 0.452276 -0.500399 0.058194 
0.458795 -0.495192 0.0545003 0.457306 -0.483756 0.0528141 0.436922 -0.484683 0.0610804 
0.558512 -0.0469154 0.0415045 0.561472 -0.0624401 0.0423444 0.547861 -0.0621454 0.0486413 
0.546537 -0.047012 0.0470729 1.00818 -0.625314 -0.108329 1.00733 -0.609102 -0.110258 
0.702181 -0.750438 0.0108609 0.68836 -0.749776 0.015888 0.689514 -0.764862 0.0182056 
0.702341 -0.766043 0.01362 0.692227 -0.795948 0.0228388 0.693537 -0.807604 0.0244307 
0.704339 -0.812271 0.0211518 0.704881 -0.796106 0.0180452 0.699347 -0.500004 0.0420299 
0.687649 -0.499844 0.047473 0.686468 -0.484811 0.0457631 0.698113 -0.48536 0.0404035 
0.687141 -0.265388 0.0124426 0.684022 -0.249912 0.0115206 0.703807 -0.249645 0.00177296 
0.7039 -0.265219 0.00419458 0.697258 -0.27022 0.00824536 0.814526 -0.936755 0.00258541 
0.801874 -0.936296 0.00716653 0.802899 -0.948192 0.00887136 0.81378 -0.952876 0.00570626 
1.00023 -0.812057 -0.0653613 0.979221 -0.813548 -0.0530687 0.97811 -0.801532 -0.054569 
0.984582 -0.796577 -0.0591555 0.99684 -0.796721 -0.0661489 0.750618 -0.812523 0.00412282 
0.765173 -0.812437 -0.000977187 0.764097 -0.797354 -0.00302337 0.751202 -0.796339 0.00124552 
0.750746 -0.515626 -0.0421903 0.751449 -0.499384 -0.0447926 0.738522 -0.499354 -0.0406757 
0.739711 -0.511069 -0.039328 0.688551 -0.687358 0.00547002 0.691868 -0.702377 0.00669483 
0.704727 -0.702437 0.00236163 0.70363 -0.687286 0.000366469 0.816628 -0.561867 -0.0563577 
0.813346 -0.546826 -0.0575034 0.802307 -0.54228 -0.0546379 0.795812 -0.547365 -0.0518275 
0.795888 -0.562985 -0.0495702 0.79699 -0.51537 -0.00286767 0.79368 -0.499803 -0.00361737 
0.813187 -0.499685 -0.013869 0.813266 -0.515218 -0.0114301 0.806662 -0.520196 -0.00717058 
0.764757 -0.500441 -0.0488506 0.765921 -0.515508 -0.0470185 0.483232 -0.188022 -0.00520946 
0.483289 -0.203664 -0.00269092 0.504043 -0.20251 -0.00990914 0.5007 -0.187509 -0.0112104 
0.489726 -0.182915 -0.00823784 0.75044 -0.484159 -0.0466339 0.735243 -0.484326 -0.0417876 
0.74842 -0.4536 -0.0503027 0.748665 -0.43809 -0.0525683 0.734328 -0.437525 -0.048098 
0.735102 -0.452837 -0.046184 0.744155 -0.317088 -0.0073349 0.734038 -0.312256 -0.00313771 
0.730923 -0.296776 -0.0040619 0.750685 -0.296544 -0.0138287 0.750777 -0.31209 -0.0114058 
0.812175 -0.484772 -0.0157164 0.792392 -0.484787 -0.00533636 0.764816 -0.484699 -0.0511103 
0.755196 -0.433026 -0.055355 0.769295 -0.453057 -0.0570041 0.766213 -0.437613 -0.0582041 
0.796653 -0.437343 -0.0151355 0.807999 -0.437917 -0.0209958 0.809287 -0.452933 -0.0192773 
0.796736 -0.452928 -0.012694 0.765244 -0.31226 -0.0187779 0.762146 -0.296773 -0.0196551 
0.750069 -0.0154174 -0.059174 0.743588 -0.0203418 -0.0548664 0.733775 -0.0154963 -0.0503574 
0.730811 0 -0.0511651 0.750298 0 -0.0614732 0.761146 0 -0.0672137 
0.762557 -0.0153633 -0.0658126 0.765361 -0.0623617 -0.0597563 0.758896 -0.067314 -0.0554529 
0.749079 -0.0624145 -0.0509504 0.745996 -0.0469197 -0.0518196 0.765392 -0.0468897 -0.062304 
0.812715 -0.187175 -0.0651499 0.81228 -0.203144 -0.0622759 0.79289 -0.203161 -0.0517716 
0.791577 -0.188537 -0.0534487 0.797416 -0.995476 0.0194837 0.812151 -1 0.0189053 
0.811845 -0.984043 0.0118678 0.797922 -0.983059 0.0169465 0.766109 -0.749714 0.0481219 
0.766093 -0.765318 0.0503314 0.759403 -0.770328 0.0540649 0.749082 -0.765542 0.0578131 
0.746035 -0.75008 0.0570081 0.563466 -0.687335 0.0514016 0.552825 -0.682563 0.0549457 
[...]
POINT_DATA 6431
SCALARS std float
LOOKUP_TABLE default
0.00372051 0.00371136 0.00367754 0.00365533 0.00372627 0.00365259 0.00352226 0.00353963 0.00242133 
0.00238362 0.00243908 0.00248074 0.00243702 0.00239802 0.0476475 0.0467751 0.0489664 0.0485662 
0.00247594 0.00249214 0.00244924 0.0457082 0.0455525 0.00255832 0.00254845 0.00255061 0.00260815 
0.0485791 0.049947 0.0466751 0.0477183 0.0531989 0.052936 0.0509525 0.0509545 0.00312922 
0.00306731 0.00310175 0.00310332 0.016337 0.0215745 0.0229283 0.0165402 0.00194461 0.00204198 
0.00216545 0.00218938 0.00993237 0.0086722 0.00885296 0.00973636 0.0468501 0.0469944 0.0488416 
0.00314604 0.0031518 0.0030951 0.00313989 0.00251439 0.00253271 0.0507043 0.0521368 0.0017695 
0.00173454 0.0017582 0.00173075 0.00172956 0.00192721 0.00211827 0.00216464 0.00209679 0.0021309 
0.00996725 0.00979251 0.00990276 0.0100193 0.00374671 0.00368076 0.0037232 0.00383537 0.00365614 
0.00365464 0.048004 0.0474716 0.0465801 0.0463236 0.00255451 0.00261816 0.0528545 0.0519871 
0.0461217 0.0477575 0.0479278 0.010056 0.0100385 0.0119204 0.0380446 0.043199 0.0245678 
0.0345876 0.0338566 0.033973 0.0350184 0.0361049 0.00315005 0.00322354 0.00322307 0.0342988 
0.0333534 0.0193808 0.0162607 0.03219 0.032624 0.0331752 0.032572 0.0327412 0.0344728 
0.0019749 0.00203147 0.0507614 0.0497624 0.0406856 0.0390136 0.00868243 0.00977123 0.0510711 
0.0407652 0.00735 0.00777779 0.00922164 0.00851672 0.00327549 0.00328902 0.00320097 0.00325033 
0.00582526 0.00534675 0.00499898 0.00486109 0.00520948 0.0105998 0.0108483 0.0115141 0.0120726 
0.0117446 0.00334824 0.00334511 0.0131026 0.0127354 0.00768969 0.00681116 0.00657456 0.00364702 
0.00365309 0.00361404 0.00366483 0.0386096 0.0358841 0.0383411 0.0032423 0.0031875 0.00311515 
0.00311527 0.00320796 0.0507612 0.020125 0.0214244 0.0293049 0.0510576 0.0566294 0.00261677 
0.0493348 0.00615451 0.00464113 0.0249863 0.0488878 0.00165351 0.0017456 0.00174595 0.0124549 
0.0129078 0.0124877 0.0117479 0.00209021 0.00208359 0.00214139 0.00211504 0.011226 0.0112367 
0.011468 0.00281624 0.00289312 0.00285199 0.00282026 0.00277718 0.00269239 0.00270662 0.00277093 
0.00281512 0.00605351 0.00558205 0.00570535 0.00641014 0.0224991 0.0121828 0.0108987 0.0248418 
0.0311922 0.0393929 0.0392024 0.0388888 0.0395238 0.0413793 0.00243505 0.00242033 0.00246364 
0.00243695 0.00252472 0.00252472 0.00256626 0.00253216 0.00292072 0.00286866 0.0028405 0.00281908 
0.0028793 0.00281607 0.0028144 0.0116841 0.0122806 0.0119584 0.0114882 0.0296369 0.0300699 
0.00342868 0.00345112 0.00346466 0.00346745 0.0035327 0.00362498 0.00354904 0.00352343 0.0410755 
0.0437994 0.0438658 0.0418482 0.0475649 0.0459836 0.0461899 0.0457625 0.0459003 0.00506681 
0.00485205 0.00558797 0.00561898 0.0350347 0.0340859 0.0337849 0.0329548 0.0333416 0.00375852 
0.00374874 0.00370619 0.00368196 0.00402673 0.0040193 0.00382097 0.00381848 0.00335959 0.00346108 
0.00345107 0.00333483 0.00462794 0.00460231 0.00448927 0.0042618 0.00425644 0.0389483 0.0392137 
0.038972 0.0386951 0.0388515 0.00426318 0.00420646 0.00237032 0.0024171 0.00246067 0.00254992 
0.00255481 0.00399208 0.00382929 0.00397004 0.00392583 0.00373035 0.00375512 0.0506095 0.0483351 
0.0443754 0.0493802 0.0516882 0.0407779 0.040309 0.00410874 0.00416044 0.00432906 0.00443715 
0.0432595 0.043106 0.041925 0.0432382 0.0518012 0.0514207 0.0136255 0.0139709 0.0141077 
0.013642 0.0133758 0.0132754 0.0133568 0.01554 0.0163035 0.0160213 0.0149031 0.0148579 
0.0399813 0.0426869 0.0428536 0.0394972 0.0257046 0.0356329 0.0121346 0.00822717 0.0443972 
0.0432977 0.0432667 0.0442419 0.0445633 0.00346066 0.00317069 0.00302497 0.00310421 0.00315666 
0.00331114 0.00322648 0.00337191 0.00339258 0.0432271 0.0429303 0.0405652 0.041982 0.0429441 
0.0410281 0.00346065 0.00345038 0.00340141 0.0441253 0.0442095 0.0438139 0.0436295 0.0449749 
0.0455366 0.0428846 0.0436573 0.00246409 0.0025989 0.0025788 0.00249378 0.00241749 0.00227793 
0.00230887 0.00233351 0.00231221 0.00200815 0.00200514 0.00206159 0.00212212 0.00216568 0.00188976 
0.00189832 0.00179813 0.00177641 0.0101144 0.0101372 0.0115117 0.0121748 0.00227729 0.00229856 
0.00219637 0.00230812 0.00236941 0.00248088 0.00247224 0.00181945 0.00189809 0.00201118 0.00205369 
0.00191961 0.00201417 0.00199965 0.0427034 0.0443837 0.0446054 0.0437285 0.0421557 0.00449389 
0.0118633 0.0130513 0.00483366 0.0446647 0.0450076 0.0445003 0.0434454 0.0439529 0.0456491 
0.0447003 0.0439321 0.0425304 0.00293569 0.00296533 0.00293135 0.00281891 0.00268916 0.0471221 
0.0482206 0.0476706 0.0448014 0.0507632 0.0510673 0.00542777 0.00591696 0.0371736 0.0351453 
0.0355712 0.0369268 0.0384962 0.0383274 0.00527772 0.00528984 0.00562927 0.00625107 0.00611522 
0.0102848 0.0110422 0.00863799 0.00827106 0.0391757 0.0384907 0.0048922 0.00490946 0.00563094 
0.00613568 0.00615939 0.00579621 0.00566797 0.0344852 0.0355516 0.0351271 0.0352746 0.0348053 
0.0311134 0.028588 0.020281 0.0204412 0.0230741 0.0139654 0.011853 0.0111611 0.0124952 
0.0380685 0.0389668 0.0396269 0.0387941 0.0315992 0.0310505 0.0311191 0.031417 0.0344687 
0.0344561 0.0339036 0.033522 0.0256569 0.018422 0.0372107 0.0383371 0.0021913 0.00225598 
0.00231091 0.0022892 0.0022262 0.00202758 0.00207123 0.00205949 0.00203521 0.00218363 0.00220455 
0.0161543 0.0154853 0.0132348 0.0121852 0.0118307 0.0458227 0.045971 0.0432252 0.046272 
0.045697 0.0115519 0.0134862 0.0134019 0.0115876 0.0420397 0.0386389 0.0410097 0.0433215 
0.046731 0.0122214 0.0139362 0.0127423 0.0139596 0.0162293 0.0175244 0.0418057 0.0417554 
0.0414135 0.041848 0.047651 0.0438822 0.0185875 0.0157053 0.0111906 0.0108454 0.0378248 
0.0391247 0.0383378 0.0114258 0.0412877 0.0405058 0.0406258 0.00270467 0.00271072 0.00267171 
0.00262634 0.0027015 0.0026096 0.0026643 0.00274062 0.00246614 0.00245245 0.00248259 0.00252087 
0.0025008 0.00249256 0.00251832 0.00253679 0.00253837 0.00256547 0.00254879 0.00269533 0.00268008 
0.00258126 0.0139343 0.0135756 0.0153375 0.016343 0.0150489 0.012862 0.0123724 0.049846 
0.0551295 0.0526643 0.0488417 0.0509976 0.0499502 0.0488346 0.0483421 0.00288185 0.00280671 
0.00293956 0.00292124 0.0029178 0.002982 0.00311174 0.0031287 0.00311583 0.00304132 0.00304081 
0.04638 0.0462507 0.0458403 0.0476126 0.049123 0.0514191 0.0502181 0.0507703 0.0543674 
0.0518517 0.00303697 0.00306072 0.00310192 0.00274173 0.00274595 0.00288699 0.00298072 0.00285336 
0.0026614 0.0027296 0.00269105 0.00271151 0.00272626 0.00286234 0.00288277 0.0496436 0.0464423 
0.0456275 0.00302819 0.00283814 0.00284625 0.0452994 0.00247143 0.00234409 0.00215146 0.00236051 
0.00254855 0.00194117 0.0019254 0.00200055 0.00214584 0.0117162 0.0126156 0.012485 0.011632 
0.00202879 0.0019547 0.00197673 0.0100739 0.00985553 0.00983193 0.00986637 0.00991073 0.0129094 
0.0124885 0.0155856 0.0148125 0.0136686 0.0143954 0.0152153 0.0127232 0.0131758 0.0160099 
0.01461 0.0292285 0.0119632 0.0133727 0.0337714 0.0370805 0.0265982 0.016691 0.00380802 
0.00401712 0.00958511 0.0160257 0.00312733 0.00316969 0.00302039 0.0357003 0.0355659 0.0352066 
0.0360416 0.00327865 0.00524735 0.00721923 0.0115888 0.00845094 0.00315801 0.0397179 0.0357659 
0.0350477 0.0356692 0.0352466 0.0342142 0.0460707 0.0441011 0.0432912 0.0416735 0.0427738 
0.00379125 0.00370956 0.00368547 0.00364234 0.00348716 0.0034807 0.0437412 0.0431159 0.0432951 
0.0449765 0.0452061 0.0440186 0.0444153 0.0456202 0.043692 0.0441746 0.0428593 0.0435164 
0.0435056 0.0441546 0.0393948 0.0404837 0.0427062 0.0413786 0.0433224 0.042399 0.0412889 
0.0425919 0.0416905 0.0423088 0.0433236 0.0505867 0.0508826 0.0440029 0.044218 0.0442709 
0.044145 0.0444864 0.00565835 0.00493875 0.00381589 0.00382759 0.00375067 0.00356136 0.00372433 
0.00438597 0.00432248 0.00465257 0.00597749 0.00526488 0.00528549 0.00576377 0.00522638 0.00639035 
0.00560767 0.0366289 0.0345202 0.0359117 0.0370769 0.0364507 0.0353421 0.0345871 0.00752207 
0.0065041 0.00601456 0.0061459 0.00709756 0.00475046 0.00460854 0.00451474 0.00472466 0.00432431 
0.00422636 0.00444161 0.00444448 0.0115211 0.00991437 0.00852193 0.0382445 0.0355403 0.0333114 
0.00494824 0.00428821 0.00438547 0.00375977 0.00365183 0.00362148 0.00357361 0.0044117 0.00440035 
0.00310002 0.00311021 0.00315982 0.00330446 0.00332869 0.00332601 0.00335059 0.00332526 0.00325354 
0.00334927 0.00322734 0.00331122 0.0033831 0.00343015 0.00555915 0.00594053 0.00612141 0.00526328 
0.00547905 0.005823 0.00546217 0.0301483 0.0307626 0.030957 0.0304193 0.0298306 0.0310219 
0.0311531 0.0344457 0.0330884 0.034621 0.0342162 0.0341585 0.0338589 0.00475857 0.00489908 
0.00507166 0.0330168 0.0338149 0.0332197 0.0313437 0.0341301 0.0342233 0.0338184 0.0335809 
0.0313056 0.0312464 0.0306543 0.00455013 0.00481518 0.00483728 0.00534605 0.00528872 0.0388367 
0.0384363 0.0367734 0.0374685 0.0378761 0.0380164 0.0372113 0.00419482 0.0044403 0.00427461 
0.0043834 0.00444426 0.00429372 0.00457021 0.00456479 0.00528535 0.00527685 0.00515469 0.00457859 
0.0343433 0.0354634 0.0346034 0.00496489 0.00470813 0.00510652 0.00438779 0.00425559 0.00430493 
0.00419086 0.00437206 0.00447112 0.0344884 0.00454298 0.00221531 0.0022714 0.00242314 0.00238429 
0.00215737 0.00347603 0.00339574 0.00335032 0.00355033 0.00417675 0.00384755 0.00294044 0.00296182 
0.00291097 0.00289226 0.0028728 0.00426637 0.00416649 0.00388157 0.00377237 0.00379133 0.00334513 
0.00351788 0.00325821 0.00334304 0.0033672 0.0033546 0.00326138 0.00283636 0.00277966 0.00283963 
0.00291394 0.00334759 0.00329737 0.00325445 0.00324526 0.0394794 0.0439635 0.0447185 0.00500205 
0.00520216 0.00530821 0.00487561 0.00491784 0.0440633 0.0426821 0.0456048 0.00951012 0.00852817 
0.00858732 0.00961391 0.0438471 0.0464062 0.0493729 0.0504177 0.0492008 0.0477506 0.0416006 
0.0394627 0.0401189 0.0404274 0.0430066 0.0422989 0.0434618 0.0447287 0.010318 0.0105099 
0.00867504 0.0407481 0.0410575 0.0422463 0.0489401 0.0480882 0.0216659 0.0218069 0.017728 
0.0154551 0.0164537 0.0161014 0.019488 0.0224256 0.0077497 0.00778514 0.0480324 0.050742 
0.0486883 0.0473251 0.0479168 0.047913 0.0464909 0.00462666 0.0048054 0.00478646 0.00437063 
0.00425025 0.00783972 0.0489375 0.0496963 0.0497336 0.0505673 0.0515805 0.00265872 0.0027349 
0.00271323 0.00276265 0.00272119 0.00279699 0.00278008 0.00273482 0.00271121 0.00255714 0.00255931 
0.00273087 0.00266668 0.00276601 0.00279724 0.0027845 0.00275014 0.0123484 0.0125511 0.0128699 
0.0126386 0.0140513 0.0153698 0.0147682 0.0136767 0.0223637 0.0203925 0.0197683 0.0210568 
0.0236887 0.0169415 0.0163135 0.0173889 0.00318886 0.00323785 0.00321118 0.00319482 0.00329373 
0.00321475 0.0161853 0.0151973 0.00324183 0.00320951 0.00313384 0.00308395 0.00310832 0.00279574 
0.00282812 0.00290306 0.002888 0.00286404 0.0259182 0.0246821 0.00287902 0.0027741 0.00696863 
0.00643482 0.00583903 0.00598657 0.00413166 0.00425585 0.00459751 0.00432579 0.00626751 0.00694808 
0.014571 0.0159664 0.0166802 0.0153039 0.007266 0.00620905 0.00522681 0.00561299 0.0054409 
0.00518902 0.0043558 0.00413151 0.0337207 0.0348947 0.0303383 0.0305748 0.0394663 0.0391805 
0.0422944 0.0356132 0.0379044 0.0263912 0.0265719 0.0233267 0.023649 0.0149641 0.0159297 
0.0155695 0.0148729 0.00330834 0.00328571 0.0178846 0.0182145 0.00394019 0.00393357 0.00378897 
0.00376405 0.003375 0.0288339 0.0271513 0.0232931 0.0221748 0.0192024 0.0195491 0.029888 
0.0329153 0.0270417 0.0256167 0.00816063 0.0078591 0.00866005 0.0400368 0.0411612 0.035501 
0.0364301 0.004656 0.00484477 0.0051486 0.00485901 0.0306665 0.0313229 0.00508244 0.00465211 
0.0047456 0.0423717 0.0446297 0.0452774 0.0360732 0.0337911 0.0305634 0.0052806 0.00543103 
0.00592747 0.00562803 0.0459652 0.045304 0.00524024 0.00447763 0.0473178 0.0275925 0.0102473 
0.0103436 0.0042577 0.00482477 0.0048184 0.00417201 0.0508022 0.0513291 0.0504574 0.0507038 
0.0503809 0.0484735 0.0483186 0.0401036 0.039012 0.0369872 0.0369473 0.0380655 0.0434801 
0.0442798 0.0452549 0.0456004 0.0483092 0.0485049 0.0395378 0.0370313 0.0360313 0.0465827 
0.0522447 0.0514982 0.0476345 0.0452431 0.0469554 0.0485865 0.00286473 0.00272763 0.00319976 
0.00325747 0.038388 0.0422826 0.0379623 0.0384909 0.036696 0.0364342 0.00285923 0.00279822 
0.00297436 0.00260251 0.0381759 0.0435245 0.0362593 0.0475763 0.0386261 0.0353449 0.0346669 
0.00278291 0.00278141 0.00246287 0.0391698 0.036123 0.0440802 0.0444537 0.0463349 0.0462566 
0.0449692 0.0466146 0.0449242 0.044147 0.0432914 0.0438755 0.0439483 0.0443241 0.0412156 
0.0418292 0.0433156 0.0427856 0.0469408 0.0493458 0.0500082 0.00346665 0.042119 0.0440857 
0.0454371 0.0458926 0.0452257 0.0430798 0.00304198 0.00290383 0.00300281 0.00251791 0.00251417 
0.00258134 0.00229317 0.00233657 0.0461535 0.0482751 0.048189 0.0453278 0.0276338 0.0296412 
0.0339668 0.0301152 0.04997 0.0503107 0.0394594 0.0398804 0.0441918 0.0456559 0.0460732 
0.0413431 0.038299 0.00219202 0.00230042 0.00235228 0.00231773 0.00227427 0.0024562 0.00246885 
0.00259606 0.00251221 0.00216256 0.00212782 0.00207141 0.00210065 0.0020334 0.00218425 0.00226733 
0.00219878 0.0136522 0.0147848 0.0159918 0.014777 0.0125644 0.00379892 0.00218149 0.00295362 
0.0121986 0.0154347 0.0161615 0.0149653 0.0131118 0.0146794 0.0111022 0.0106911 0.0113386 
0.0120771 0.015761 0.0143021 0.0155335 0.0138896 0.0138007 0.0151425 0.0154901 0.0198699 
0.00546376 0.0149113 0.0130652 0.0101191 0.0103472 0.0108875 0.0105686 0.0102775 0.0109708 
0.0125099 0.012528 0.00182253 0.00185853 0.00184108 0.00186981 0.00192822 0.0019585 0.00189278 
0.00189882 0.00188019 0.00185318 0.00199697 0.00194027 0.00186839 0.00184988 0.00184929 0.00177568 
0.00183173 0.00183176 0.00180592 0.00177259 0.00187694 0.00178345 0.00183538 0.0018427 0.00177853 
0.00179351 0.018851 0.015055 0.0170146 0.0227297 0.0275123 0.0346173 0.0141898 0.0162465 
0.0165256 0.0025436 0.0041011 0.00193565 0.0183938 0.0168465 0.0147704 0.0142127 0.0160198 
0.0172418 0.0155759 0.0141493 0.00297898 0.00394604 0.0108067 0.00888612 0.00861397 0.00829343 
0.00781487 0.00994705 0.0106552 0.00967765 0.00921527 0.00951459 0.00945225 0.021718 0.00183458 
0.00182782 0.00184961 0.0018927 0.00187017 0.00188784 0.0017826 0.00180445 0.00923399 0.00918662 
0.00936325 0.0095786 0.0123472 0.0101077 0.0105196 0.00902727 0.00902681 0.00896714 0.00887371 
0.00873947 0.00861983 0.00884289 0.00821747 0.00841938 0.00899318 0.00966338 0.00928521 0.00986243 
0.00908945 0.00860361 0.008896 0.0134981 0.0133788 0.0170923 0.0188831 0.0189761 0.0176308 
0.0167657 0.00227864 0.00226654 0.00229308 0.025781 0.0264118 0.0205398 0.0199289 0.021747 
0.020236 0.0132465 0.014056 0.0173833 0.00202163 0.00213006 0.00204765 0.00203165 0.00187222 
0.00191659 0.00186566 0.00192359 0.00194845 0.00189746 0.00192611 0.00198077 0.00190562 0.00185252 
0.00179075 0.00181775 0.00208778 0.00202319 0.00186484 0.00184665 0.00183857 0.0247265 0.021552 
0.0232737 0.0259091 0.0383474 0.0374642 0.0341836 0.0353301 0.0384029 0.0360448 0.0310727 
0.0319644 0.00265953 0.00274346 0.00271131 0.00260755 0.0026404 0.00275072 0.00268605 0.00269551 
0.00271595 0.00263821 0.0344174 0.0361532 0.036628 0.0347353 0.0346656 0.0354441 0.0388356 
0.0367163 0.0361921 0.0373011 0.00277629 0.00274122 0.00276265 0.00279795 0.00274905 0.00267221 
0.00271946 0.0379391 0.0346267 0.0373015 0.0378239 0.00296935 0.00287855 0.00715023 0.00778956 
0.0103443 0.0104931 0.0446107 0.0468812 0.0470933 0.0454758 0.00374872 0.00375407 0.00373823 
0.00365337 0.00372472 0.00346649 0.00350262 0.0036586 0.00351839 0.00345407 0.00346701 0.0037358 
0.00374754 0.00374283 0.00380509 0.00251801 0.00243902 0.0023238 0.00235929 0.00241723 0.00240903 
0.00235665 0.0024178 0.00250807 0.00249685 0.00255321 0.0487693 0.0465681 0.0523077 0.0506881 
0.0504369 0.0520764 0.0548975 0.0486436 0.0495593 0.0024743 0.00250084 0.00247873 0.00245471 
0.0441341 0.0444186 0.0451421 0.0472359 0.048762 0.0479245 0.0444061 0.00787409 0.00631601 
0.00617106 0.00619179 0.0084622 0.0196926 0.022983 0.0353255 0.0229067 0.0406599 0.0417697 
0.0402709 0.0397114 0.00190125 0.00189985 0.00192278 0.00189114 0.00185271 0.00190316 0.00259761 
0.00256526 0.00265156 0.00274553 0.00275981 0.0469871 0.0471244 0.0451359 0.0487124 0.0515959 
0.0519434 0.00700871 0.0098167 0.00938166 0.00652779 0.00618804 0.0389759 0.0374674 0.0382256 
0.0385393 0.00307219 0.00307617 0.0031025 0.00307988 0.031534 0.034378 0.0251747 0.0196746 
0.0193053 0.0158377 0.0247105 0.0168606 0.0183143 0.0244621 0.00774235 0.00824908 0.00742197 
0.00691001 0.00875295 0.00772458 0.0313286 0.0314685 0.0315247 0.0323105 0.0320148 0.00229052 
0.00230368 0.00230248 0.00226918 0.00222284 0.00224098 0.0020491 0.00210941 0.00210641 0.00219896 
0.0031328 0.0031905 0.00312187 0.00304546 0.00305322 0.00298633 0.0029789 0.00296804 0.00295532 
0.0109849 0.0110433 0.0404467 0.0395271 0.0393519 0.0394208 0.0395942 0.0359367 0.0360828 
0.0421093 0.0164778 0.0252332 0.0192449 0.048847 0.0480674 0.0492457 0.0458778 0.0501831 
0.0507609 0.0479406 0.0095093 0.00856488 0.00829376 0.00928354 0.00728096 0.00758516 0.00748631 
0.0194293 0.0217622 0.0202882 0.0178078 0.0163575 0.0154558 0.016406 0.0123677 0.0118063 
0.0477564 0.0459874 0.049595 0.0478254 0.0409625 0.0416764 0.044323 0.0443466 0.0412511 
0.0498487 0.053164 0.0522294 0.0512622 0.0509056 0.0516686 0.0499753 0.0495518 0.0535308 
0.0468389 0.0484845 0.0473107 0.0474641 0.0477916 0.00309741 0.00305518 0.00253792 0.00252792 
0.00245297 0.00247768 0.0497898 0.0470186 0.0456024 0.0483416 0.00208483 0.00197392 0.00196876 
0.00199224 0.00190513 0.00200309 0.00185627 0.00206819 0.0021512 0.002166 0.00206827 0.00206299 
0.00208606 0.00208664 0.0132189 0.0125647 0.0129573 0.0135099 0.00977625 0.0100018 0.00988819 
0.00988266 0.0117375 0.0117015 0.0116339 0.0119195 0.0121417 0.0302082 0.0272467 0.0282207 
0.0286646 0.028905 0.0288218 0.0251416 0.0228437 0.0297509 0.00394366 0.00407953 0.00427206 
0.00411538 0.00387195 0.00380095 0.00389914 0.0287691 0.0351991 0.0296745 0.02559 0.0254132 
0.0284067 0.0292858 0.0394114 0.0433416 0.0461453 0.0443571 0.0438342 0.0496885 0.0515175 
0.0372919 0.0392659 0.0345484 0.0312723 0.0287224 0.0288291 0.00362987 0.00369156 0.00367309 
0.0036141 0.00352624 0.00357841 0.00367588 0.0033924 0.0035081 0.00350449 0.00346441 0.0480358 
0.0464131 0.0528249 0.0516529 0.0510619 0.0536446 0.0458434 0.0459917 0.045568 0.047121 
0.0467317 0.00268544 0.0026306 0.00255672 0.00278367 0.0450468 0.0464954 0.0423198 0.0432394 
0.0387935 0.0389223 0.0403172 0.0445276 0.0508376 0.0499535 0.0482439 0.0486429 0.0517221 
0.0487473 0.0491148 0.0464859 0.0461926 0.0288632 0.00933852 0.00644313 0.0066968 0.00419101 
0.00414793 0.00400784 0.00412079 0.032456 0.033184 0.00355762 0.00357895 0.00360732 0.00371531 
0.00310357 0.00369046 0.00371722 0.00361723 0.00352528 0.00349102 0.00329051 0.00317547 0.00326829 
0.00347981 0.00336575 0.0034432 0.003381 0.00332606 0.00373699 0.00373992 0.00361032 0.00345263 
0.00368403 0.00354151 0.0143902 0.0143495 0.0120287 0.0117636 0.0146882 0.0122134 0.0325435 
0.032104 0.0341927 0.0104945 0.0126353 0.013054 0.0108445 0.0120376 0.0176881 0.0315967 
0.0325132 0.0318441 0.0314365 0.0312664 0.0333404 0.0382278 0.0383828 0.0376956 0.0372586 
0.0365582 0.0353034 0.0357725 0.0382338 0.0372304 0.0326181 0.0339855 0.0331932 0.0336331 
0.0342639 0.0344266 0.00242814 0.00234762 0.00233771 0.00239916 0.001984 0.00318926 0.00322771 
0.00328953 0.00323439 0.00290645 0.00294352 0.00292814 0.002901 0.00297183 0.00298785 0.00298405 
0.0401912 0.0476815 0.0065662 0.00707246 0.00724194 0.00650803 0.00733942 0.00783287 0.0077788 
0.00667688 0.0402947 0.0404292 0.0387113 0.0397484 0.0110447 0.00956921 0.00872137 0.0483289 
0.0460437 0.0486076 0.0274607 0.0399609 0.0294242 0.00741326 0.00797642 0.00780583 0.00693074 
0.00675655 0.00459285 0.00429628 0.00438966 0.0045868 0.0490424 0.0480508 0.0478042 0.0473764 
0.0479704 0.00685564 0.00648978 0.0191021 0.0193634 0.0216803 0.0209512 0.0247234 0.0245227 
0.0227379 0.0242228 0.0223488 0.00319634 0.00321899 0.00319475 0.00320224 0.00317427 0.00325313 