# vtk DataFile Version 5.1
vtk output
ASCII
DATASET POLYDATA
POINTS 6431 float
0.766286 -0.750036 -0.011355 0.755347 -0.745462 -0.00830097 0.748835 -0.750533 -0.00527803 
0.748883 -0.76618 -0.00278802 0.769617 -0.765045 -0.0100957 0.75414 -0.733751 -0.00966497 
0.733402 -0.734869 -0.00236799 0.7346 -0.749913 -0.000485181 0.499966 -0.250011 -0.00123406 
0.48644 -0.249246 0.00312489 0.485589 -0.265407 0.00590203 0.500807 -0.265284 0.000845628 
0.498893 -0.234917 -0.00308457 0.485646 -0.234043 0.00117499 0.735199 -0.249621 -0.0136303 
0.746779 -0.249796 -0.0192831 0.749842 -0.265317 -0.0183601 0.735264 -0.265182 -0.0111972 
0.514233 -0.250617 -0.00586302 0.520762 -0.245564 -0.00879717 0.519602 -0.233792 -0.0101052 
0.745618 -0.234787 -0.0210917 0.734076 -0.234612 -0.0154574 0.514812 -0.375412 0.0137069 
0.501673 -0.374272 0.0180977 0.501044 -0.390479 0.0209658 0.516061 -0.390438 0.0157275 
0.496398 -0.499805 0.119056 0.495812 -0.484586 0.118381 0.5169 -0.484346 0.112082 
0.517348 -0.499506 0.113176 0.499673 -0.390669 0.109603 0.498826 -0.375216 0.10845 
0.511886 -0.37493 0.103912 0.514718 -0.390483 0.104385 0.623767 -0.500609 -0.00312451 
0.610553 -0.499486 0.00111901 0.609941 -0.515685 0.00403657 0.625029 -0.51562 -0.00103459 
0.98852 -0.624389 -0.102319 0.999224 -0.625029 -0.105542 0.999527 -0.608836 -0.107818 
0.985409 -0.609314 -0.10341 0.376057 0 0.000263608 0.376878 -0.0148785 0.00269488 
0.389983 -0.015601 -0.00159153 0.38889 0 -0.00384057 0.892268 -0.374298 -0.106545 
0.879311 -0.374278 -0.10254 0.880477 -0.386004 -0.101229 0.891571 -0.39053 -0.104016 
0.516765 -0.515149 0.114506 0.510227 -0.519943 0.116568 0.499097 -0.515442 0.119246 
0.613318 -0.624446 0.0210539 0.626143 -0.624494 0.0167301 0.625026 -0.609362 0.0146025 
0.609959 -0.60943 0.0197021 0.488864 -0.374185 0.0225457 0.490113 -0.385871 0.0240204 
0.485969 -0.374531 0.112825 0.485467 -0.390166 0.11441 0.123764 -0.125966 0.120599 
0.129928 -0.120682 0.115282 0.126193 -0.108773 0.11369 0.116213 -0.10386 0.117712 
0.110326 -0.109025 0.123028 0.110627 -0.124627 0.128915 0.376621 -0.108661 0.0180329 
0.375984 -0.124872 0.0208786 0.391055 -0.124809 0.0157629 0.389814 -0.109782 0.0137453 
0.369136 0 0.11603 0.390028 0 0.107929 0.390746 -0.0158547 0.109525 
0.370027 -0.0161212 0.117447 0.751505 -0.889967 0.0174885 0.750309 -0.874867 0.0152857 
0.735388 -0.874858 0.0207415 0.738775 -0.889842 0.0221224 0.74899 -0.859876 0.0131121 
0.735946 -0.858679 0.0176704 0.749196 -0.37537 -0.000609729 0.750406 -0.390391 0.00115605 
0.730548 -0.390668 0.010545 0.729231 -0.375974 0.00894394 0.5005 -0.359137 0.0159092 
0.514713 -0.35978 0.0110693 0.498286 -0.359847 0.107185 0.510812 -0.360288 0.102884 
0.728317 -0.363957 0.00774725 0.734963 -0.359025 0.00380042 0.74957 -0.359161 -0.00332621 
0.875669 -0.983676 -0.0116818 0.864705 -0.979669 -0.00845626 0.858144 -0.984317 -0.00528052 
0.858996 -1 0.00324002 0.874588 -1 0.000203631 0.879002 -0.995033 -0.0109762 
0.871796 -0.749819 -0.00367345 0.891198 -0.749722 -0.0140172 0.891399 -0.765218 -0.0113618 
0.884887 -0.77019 -0.00705132 0.875144 -0.765372 -0.00284254 0.639308 -0.516232 -0.00572565 
0.645793 -0.511113 -0.00876801 0.644537 -0.499436 -0.0102879 0.870495 -0.734813 -0.00543229 
0.890125 -0.734813 -0.0158984 1.00036 -0.641148 -0.103717 0.989594 -0.636263 -0.101022 
0.868456 -0.614167 -0.0240776 0.869527 -0.626154 -0.022672 0.85812 -0.625495 -0.0169078 
0.858492 -0.609296 -0.0197442 0.870623 -0.641023 -0.0208091 0.859223 -0.640458 -0.0150333 
0.363492 0 0.00433131 0.364153 -0.0144606 0.00674974 0.983713 -0.392872 -0.126881 
0.979486 -0.375409 -0.12822 0.980211 -0.375539 -0.133389 0.983562 -0.3902 -0.132521 
0.876084 -0.359237 -0.103637 0.891409 -0.359081 -0.1084 0.977637 -0.360215 -0.129866 
0.979498 -0.359322 -0.135359 0.857731 -0.250504 -0.11301 0.8586 -0.265686 -0.111203 
0.879766 -0.264569 -0.117824 0.878641 -0.249944 -0.119469 0.748964 -0.015726 -0.112279 
0.747974 0 -0.114048 0.73436 0 -0.110011 0.735172 -0.0153131 -0.108202 
0.879068 -0.140052 -0.134534 0.875821 -0.124978 -0.135598 0.864711 -0.120442 -0.132863 
0.858227 -0.125528 -0.130182 0.858254 -0.141161 -0.127998 0.890863 0 -0.139891 
0.890643 -0.0153129 -0.137502 0.884136 -0.0201746 -0.132921 0.875096 -0.0154762 -0.128287 
0.872336 0 -0.129103 0.770164 -0.0146875 -0.118771 0.769737 0 -0.120623 
0.854146 -0.0162353 -0.115993 0.852876 0 -0.117853 0.875564 -0.234498 -0.120629 
0.864522 -0.229922 -0.117881 0.858001 -0.234982 -0.115203 0.764428 -0.875549 0.0102408 
0.764547 -0.89116 0.0129269 0.770918 -0.870437 0.00696398 0.769597 -0.858791 0.00538281 
0.852717 -0.754834 0.00693702 0.859186 -0.749832 0.00279821 0.853791 -0.766819 0.00835003 
0.625476 -0.640729 0.0194904 0.614539 -0.636147 0.0224687 0.639069 -0.625492 0.0125209 
0.639276 -0.609972 0.0098915 0.640123 -0.640587 0.0145217 0.267602 -0.376113 0.139186 
0.267616 -0.375288 0.12401 0.259669 -0.361068 0.122604 0.252748 -0.355571 0.127703 
0.25213 -0.356396 0.138082 0.263108 -0.361785 0.14485 0.485479 -0.359168 0.0211474 
0.485544 -0.359348 0.111504 0.271823 -0.369996 0.115674 0.268998 -0.359459 0.112821 
0.271859 -0.38494 0.128325 0.272111 -0.384852 0.135788 0.14415 -0.140128 0.113215 
0.139827 -0.125577 0.111225 0.123762 -0.141538 0.126571 0.375676 -0.124906 0.126648 
0.376294 -0.140198 0.127729 0.355529 -0.140614 0.134613 0.354569 -0.125891 0.133511 
0.379327 -0.139874 0.0221798 0.392179 -0.139943 0.0178371 0.36501 -0.120279 0.0238511 
0.363769 -0.108592 0.0223757 0.353868 -0.113767 0.132669 0.360486 -0.108915 0.130121 
0.374804 -0.109389 0.125521 0.550954 -0.499359 0.0214093 0.563786 -0.49944 0.0170187 
0.562653 -0.484318 0.0149307 0.547607 -0.484371 0.0201031 0.566595 -0.436863 0.00583033 
0.545859 -0.438006 0.0131333 0.547106 -0.453031 0.0151584 0.561344 -0.453653 0.0103734 
0.567841 -0.448549 0.00731041 0.954071 -0.937242 -0.0462404 0.941104 -0.937458 -0.0417132 
0.942333 -0.952043 -0.0399242 0.955051 -0.952477 -0.0442741 1.00511 -0.993704 -0.0554618 
1.00381 -0.983257 -0.0565926 0.982899 -0.983958 -0.049204 0.982652 -0.995511 -0.0473681 
0.999363 -1 -0.0472614 0.933345 -0.93761 -0.00521801 0.952683 -0.937582 -0.0157305 
0.952709 -0.953036 -0.0130737 0.9463 -0.958002 -0.00874661 0.936473 -0.95309 -0.00426692 
0.548278 -0.0618976 -0.0449036 0.561608 -0.0629491 -0.048912 0.561659 -0.0472078 -0.0511629 
0.547247 -0.0466737 -0.0468178 0.517363 0 -0.0443744 0.505241 0 -0.040599 
0.505531 -0.0110854 -0.0390206 0.516545 -0.0156075 -0.0417927 0.563176 -0.515638 0.0199421 
0.552215 -0.511034 0.0229328 0.4386 -0.499471 0.0635131 0.452276 -0.500399 0.058194 
0.458795 -0.495192 0.0545003 0.457306 -0.483756 0.0528141 0.436922 -0.484683 0.0610804 
0.558512 -0.0469154 0.0415045 0.561472 -0.0624401 0.0423444 0.547861 -0.0621454 0.0486413 
0.546537 -0.047012 0.0470729 1.00818 -0.625314 -0.108329 1.00733 -0.609102 -0.110258 
0.702181 -0.750438 0.0108609 0.68836 -0.749776 0.015888 0.689514 -0.764862 0.0182056 
0.702341 -0.766043 0.01362 0.692227 -0.795948 0.0228388 0.693537 -0.807604 0.0244307 
0.704339 -0.812271 0.0211518 0.704881 -0.796106 0.0180452 0.699347 -0.500004 0.0420299 
0.687649 -0.499844 0.047473 0.686468 -0.484811 0.0457631 0.698113 -0.48536 0.0404035 
0.687141 -0.265388 0.0124426 0.684022 -0.249912 0.0115206 0.703807 -0.249645 0.00177296 
0.7039 -0.265219 0.00419458 0.697258 -0.27022 0.00824536 0.814526 -0.936755 0.00258541 
0.801874 -0.936296 0.00716653 0.802899 -0.948192 0.00887136 0.81378 -0.952876 0.00570626 
1.00023 -0.812057 -0.0653613 0.979221 -0.813548 -0.0530687 0.97811 -0.801532 -0.054569 
0.984582 -0.796577 -0.0591555 0.99684 -0.796721 -0.0661489 0.750618 -0.812523 0.00412282 
0.765173 -0.812437 -0.000977187 0.764097 -0.797354 -0.00302337 0.751202 -0.796339 0.00124552 
0.750746 -0.515626 -0.0421903 0.751449 -0.499384 -0.0447926 0.738522 -0.499354 -0.0406757 
0.739711 -0.511069 -0.039328 0.688551 -0.687358 0.00547002 0.691868 -0.702377 0.00669483 
0.704727 -0.702437 0.00236163 0.70363 -0.687286 0.000366469 0.816628 -0.561867 -0.0563577 
0.813346 -0.546826 -0.0575034 0.802307 -0.54228 -0.0546379 0.795812 -0.547365 -0.0518275 
0.795888 -0.562985 -0.0495702 0.79699 -0.51537 -0.00286767 0.79368 -0.499803 -0.00361737 
0.813187 -0.499685 -0.013869 0.813266 -0.515218 -0.0114301 0.806662 -0.520196 -0.00717058 
0.764757 -0.500441 -0.0488506 0.765921 -0.515508 -0.0470185 0.483232 -0.188022 -0.00520946 
0.483289 -0.203664 -0.00269092 0.504043 -0.20251 -0.00990914 0.5007 -0.187509 -0.0112104 
0.489726 -0.182915 -0.00823784 0.75044 -0.484159 -0.0466339 0.735243 -0.484326 -0.0417876 
0.74842 -0.4536 -0.0503027 0.748665 -0.43809 -0.0525683 0.734328 -0.437525 -0.048098 
0.735102 -0.452837 -0.046184 0.744155 -0.317088 -0.0073349 0.734038 -0.312256 -0.00313771 
0.730923 -0.296776 -0.0040619 0.750685 -0.296544 -0.0138287 0.750777 -0.31209 -0.0114058 
0.812175 -0.484772 -0.0157164 0.792392 -0.484787 -0.00533636 0.764816 -0.484699 -0.0511103 
0.755196 -0.433026 -0.055355 0.769295 -0.453057 -0.0570041 0.766213 -0.437613 -0.0582041 
0.796653 -0.437343 -0.0151355 0.807999 -0.437917 -0.0209958 0.809287 -0.452933 -0.0192773 
0.796736 -0.452928 -0.012694 0.765244 -0.31226 -0.0187779 0.762146 -0.296773 -0.0196551 
0.750069 -0.0154174 -0.059174 0.743588 -0.0203418 -0.0548664 0.733775 -0.0154963 -0.0503574 
0.730811 0 -0.0511651 0.750298 0 -0.0614732 0.761146 0 -0.0672137 
0.762557 -0.0153633 -0.0658126 0.765361 -0.0623617 -0.0597563 0.758896 -0.067314 -0.0554529 
0.749079 -0.0624145 -0.0509504 0.745996 -0.0469197 -0.0518196 0.765392 -0.0468897 -0.062304 
0.812715 -0.187175 -0.0651499 0.81228 -0.203144 -0.0622759 0.79289 -0.203161 -0.0517716 
0.791577 -0.188537 -0.0534487 0.797416 -0.995476 0.0194837 0.812151 -1 0.0189053 
0.811845 -0.984043 0.0118678 0.797922 -0.983059 0.0169465 0.766109 -0.749714 0.0481219 
0.766093 -0.765318 0.0503314 0.759403 -0.770328 0.0540649 0.749082 -0.765542 0.0578131 
0.746035 -0.75008 0.0570081 0.563466 -0.687335 0.0514016 0.552825 -0.682563 0.0549457 
[...]
POINT_DATA 6431
SCALARS std float
LOOKUP_TABLE default
0.00376262 0.00375171 0.00370435 0.00367476 0.00375792 0.00370433 0.00355584 0.00355616 0.002362 
0.00232203 0.00237776 0.00242175 0.0023777 0.00233352 0.0468099 0.0458984 0.0485144 0.048135 
0.0024171 0.00243736 0.00239545 0.044991 0.0449918 0.00254632 0.00255646 0.00255356 0.00259169 
0.0483559 0.0494646 0.0455148 0.0465831 0.0527711 0.0531199 0.0502267 0.0498015 0.00310703 
0.00305025 0.00309808 0.00309867 0.0163109 0.0216259 0.0228703 0.016466 0.00197219 0.00206695 
0.00218039 0.00220258 0.00961484 0.00840217 0.00855844 0.00940525 0.046025 0.0467698 0.0493777 
0.00316843 0.0031586 0.00309116 0.00315156 0.00253063 0.00255012 0.0510746 0.0520737 0.0017722 
0.00172128 0.00174225 0.00172011 0.00172813 0.00195619 0.002057 0.00208413 0.00202813 0.00207575 
0.0103064 0.0100668 0.0101708 0.0103561 0.00379113 0.00375256 0.00380308 0.00389349 0.00374628 
0.00374089 0.0476322 0.0472916 0.0461644 0.0458824 0.00256795 0.00259074 0.0533565 0.0520443 
0.0457101 0.0472238 0.0472306 0.00993026 0.00977366 0.0115014 0.0368672 0.042184 0.024209 
0.0351792 0.033844 0.0339439 0.0353769 0.0368869 0.00314864 0.00320728 0.00319117 0.0347354 
0.0334797 0.0192598 0.0161747 0.0323251 0.0329102 0.0333387 0.0324528 0.0328991 0.0344509 
0.00200481 0.00206044 0.0487894 0.0479989 0.0394733 0.0377365 0.00844342 0.00948869 0.0493795 
0.0397309 0.00731998 0.00772251 0.00915523 0.00847293 0.00325847 0.00327413 0.00318561 0.00323299 
0.00582184 0.00534369 0.00499548 0.0048564 0.00520174 0.0105885 0.0108475 0.011527 0.0120784 
0.0117584 0.0033201 0.00331288 0.0130712 0.0127042 0.00771693 0.00682299 0.00656928 0.00371132 
0.00369268 0.00369187 0.00374985 0.0401378 0.0369632 0.0397754 0.00326037 0.00321704 0.00310134 
0.00309292 0.00320581 0.0505548 0.0202825 0.0215269 0.0295542 0.0510028 0.0565014 0.00263335 
0.0498155 0.00627934 0.00471071 0.0249005 0.0485685 0.00166425 0.00173871 0.0017787 0.0128856 
0.0133749 0.0129537 0.0121743 0.00200528 0.00200561 0.00205792 0.00204585 0.01163 0.0116508 
0.0118782 0.00281919 0.00289304 0.00284509 0.00281462 0.00273002 0.00264726 0.00267573 0.00274157 
0.002774 0.00612861 0.00564557 0.00577453 0.00648498 0.022545 0.012261 0.010965 0.0251199 
0.0313474 0.0406491 0.0401111 0.039742 0.0404956 0.0427147 0.00244779 0.00242225 0.00247662 
0.00246149 0.00257575 0.00257188 0.00261807 0.00258527 0.00292372 0.00287457 0.00287758 0.00284871 
0.00289924 0.00283472 0.00284444 0.0113978 0.0120185 0.0117717 0.0112578 0.0297411 0.0299892 
0.00341753 0.00343924 0.00344591 0.00345096 0.00350911 0.00361014 0.00355558 0.00351171 0.0401216 
0.0429714 0.0428062 0.0405879 0.0463238 0.0445534 0.0450335 0.0447503 0.0448598 0.00497186 
0.004748 0.0054189 0.00545272 0.0344912 0.0341963 0.0338691 0.0327451 0.0329453 0.00380286 
0.0037968 0.00373766 0.0037093 0.00397421 0.00394846 0.003753 0.00376858 0.00338292 0.00349035 
0.0034868 0.00337543 0.00461367 0.00456353 0.00445138 0.00423807 0.0042441 0.0391231 0.0398789 
0.0389858 0.0383329 0.0386307 0.00418318 0.0041439 0.0022821 0.00233203 0.00238412 0.00246109 
0.00246239 0.00390651 0.00374371 0.0038526 0.00380546 0.00361686 0.00364903 0.0493336 0.0474485 
0.0440808 0.0489302 0.051 0.0411325 0.0409884 0.00402536 0.00403258 0.00419816 0.00429795 
0.0437899 0.0438278 0.0425581 0.0438081 0.0506342 0.0503479 0.0132704 0.0136253 0.0137641 
0.0133092 0.0130245 0.0129261 0.0130019 0.0151187 0.0158968 0.0156503 0.0145481 0.0144516 
0.0382518 0.040857 0.0412908 0.0382639 0.024388 0.0339903 0.0116806 0.00789689 0.0447043 
0.0432436 0.0430215 0.0447821 0.0453475 0.00349493 0.00320483 0.00306261 0.00315221 0.00322441 
0.00338117 0.0033041 0.00343979 0.00346747 0.0434833 0.0430645 0.0410285 0.0426627 0.0426007 
0.0408349 0.00345769 0.00345664 0.00340055 0.0458351 0.0455127 0.0445244 0.0447457 0.0459421 
0.0460383 0.0432941 0.0444099 0.00246013 0.00257841 0.00253711 0.00245981 0.00239725 0.00221552 
0.0022499 0.00227678 0.00225505 0.00200717 0.00199992 0.00205061 0.00210652 0.00221635 0.00187663 
0.00188835 0.00179381 0.00176925 0.0101316 0.0101387 0.0113692 0.0119765 0.00222088 0.00223659 
0.00214093 0.00225014 0.00228841 0.00238103 0.00237383 0.00183569 0.00192047 0.00204672 0.00207995 
0.00193529 0.0020265 0.00200409 0.0432569 0.0450905 0.0452887 0.0440598 0.0425401 0.00451291 
0.0117667 0.0129837 0.00482139 0.0450135 0.0456185 0.0455311 0.0444762 0.0450834 0.0467887 
0.0460508 0.0455346 0.0443588 0.00293338 0.00295747 0.00285385 0.00275568 0.00263939 0.0471628 
0.0484126 0.0473008 0.0441569 0.0505261 0.0504166 0.0055021 0.00599161 0.0376878 0.0357039 
0.0363469 0.0375468 0.0393428 0.0389555 0.00539041 0.00538669 0.00571269 0.0063436 0.00623196 
0.0103947 0.0111976 0.00876502 0.00834807 0.0394138 0.0386109 0.00500784 0.00500405 0.00566451 
0.00615991 0.00618225 0.00582569 0.00570408 0.0338814 0.0349696 0.0344462 0.0344825 0.0341241 
0.0307488 0.0280312 0.0195981 0.0198174 0.0223965 0.0134092 0.0113605 0.0106795 0.0119681 
0.0368399 0.0372738 0.0377046 0.0374371 0.0321899 0.0311524 0.0309891 0.0316264 0.0338667 
0.0338197 0.0332869 0.0329504 0.0251325 0.0179944 0.0359857 0.0368775 0.00215554 0.00221631 
0.00228284 0.00227017 0.002205 0.00203611 0.00207439 0.00206845 0.00205033 0.0021665 0.00217024 
0.0156441 0.0150286 0.0128309 0.0117985 0.0114484 0.0458742 0.045887 0.0433164 0.0463816 
0.0456985 0.0111394 0.0130409 0.0129632 0.0111906 0.0413463 0.0377659 0.0397406 0.0423822 
0.0459587 0.0117184 0.0134046 0.0122884 0.0134949 0.0157573 0.0170234 0.0401514 0.0401636 
0.0404663 0.040995 0.0463202 0.042866 0.0180283 0.0152182 0.0107144 0.0103871 0.035939 
0.0375965 0.036801 0.011006 0.0400997 0.0395646 0.039885 0.00267015 0.00268701 0.00264647 
0.00258736 0.00271604 0.00262288 0.00266886 0.00275086 0.00245894 0.00244921 0.00248454 0.0025342 
0.00251826 0.00248243 0.00251295 0.0025022 0.0024901 0.00251817 0.00251155 0.00271437 0.00270243 
0.00260014 0.0141601 0.0137977 0.0156502 0.0165969 0.0152746 0.0129801 0.0124926 0.0495982 
0.0550259 0.0523625 0.0484614 0.0511834 0.0501332 0.0480359 0.0477601 0.00290245 0.00282409 
0.00296353 0.00294798 0.00294636 0.00298178 0.00310356 0.00312886 0.00311585 0.00303502 0.00303365 
0.0454736 0.0453201 0.0451235 0.0472656 0.0488296 0.0522482 0.0503475 0.0512697 0.0550773 
0.0527362 0.00303351 0.00304845 0.00308558 0.00277397 0.0027725 0.00291434 0.00300837 0.00289409 
0.00269354 0.00276096 0.00270814 0.00272683 0.00274632 0.00289987 0.00292423 0.0497007 0.0469985 
0.0458069 0.00305754 0.00286805 0.00289201 0.0450162 0.00241094 0.00228492 0.00210262 0.00231043 
0.00249898 0.00187203 0.0018516 0.00193763 0.00207384 0.0119681 0.012916 0.0128135 0.0119232 
0.00202342 0.00195612 0.00196372 0.0104316 0.0101963 0.0101191 0.0101782 0.010256 0.0126883 
0.0123242 0.015624 0.0149021 0.0136882 0.0142689 0.0151552 0.0124097 0.0128707 0.0158859 
0.0143862 0.028997 0.0121604 0.0135345 0.0341057 0.0363713 0.0260781 0.0166296 0.0038606 
0.00408039 0.00942725 0.0157257 0.00318259 0.00322734 0.00307605 0.0347256 0.0343791 0.0336095 
0.0344719 0.00332823 0.00519406 0.00707411 0.0115614 0.0086221 0.00322975 0.0385467 0.0340261 
0.0334153 0.0342126 0.0343084 0.033047 0.047167 0.0451077 0.0443529 0.0420626 0.0430752 
0.00386103 0.0037467 0.0037326 0.00370149 0.00347997 0.003463 0.0439494 0.0437666 0.0441005 
0.0456513 0.0450397 0.0436768 0.0438084 0.0451048 0.0430235 0.043449 0.0427598 0.0438448 
0.0446787 0.0443558 0.0374273 0.0380721 0.0404212 0.0395402 0.0422041 0.0419579 0.0420189 
0.042839 0.0426246 0.0420246 0.0436218 0.0493224 0.0499648 0.0429086 0.0426234 0.0437623 
0.044085 0.0435432 0.00552204 0.00487692 0.00386974 0.00389327 0.00381089 0.00361927 0.0037746 
0.00436388 0.00428731 0.00463861 0.00619178 0.00543832 0.00547083 0.0059637 0.00535848 0.00653527 
0.00575677 0.0362433 0.0347468 0.0353901 0.0364991 0.0358289 0.0349044 0.0344389 0.00760115 
0.00656702 0.00609512 0.00626322 0.00722631 0.00480562 0.00465485 0.00456077 0.00478511 0.00437873 
0.00429643 0.00452929 0.0045184 0.0117433 0.0101142 0.0086791 0.0383246 0.0356627 0.0337108 
0.00508305 0.00436631 0.00448197 0.00382762 0.00370407 0.00367584 0.00363538 0.00444822 0.00443767 
0.00308805 0.00310977 0.0031284 0.00323739 0.00327709 0.00329444 0.0032939 0.0032544 0.00328075 
0.00335373 0.00316604 0.00326608 0.00337195 0.0034282 0.00559818 0.00595842 0.00613153 0.00531562 
0.00552642 0.00585532 0.00550766 0.0313664 0.0318026 0.0323806 0.032116 0.0314086 0.0316273 
0.0320169 0.0339884 0.0331041 0.0338785 0.033463 0.0336727 0.0335077 0.00481004 0.00496109 
0.0051295 0.0330464 0.0337568 0.0331865 0.031491 0.0331609 0.0334268 0.0336391 0.033508 
0.0323687 0.0321765 0.0311719 0.00455798 0.00482116 0.00481938 0.0053832 0.00533852 0.0385496 
0.037682 0.0362667 0.0373296 0.0379901 0.0380679 0.0365096 0.00420351 0.00445802 0.00434354 
0.00445991 0.00449643 0.00434441 0.00464325 0.00462513 0.00534015 0.00533353 0.00521886 0.00462497 
0.0345111 0.0357771 0.0347037 0.00503405 0.00477491 0.00517482 0.00448038 0.00434475 0.00440342 
0.00427872 0.00445214 0.00455779 0.0343205 0.00462795 0.00216118 0.00221611 0.00233253 0.00229736 
0.00210254 0.00336994 0.00329794 0.00325801 0.00344047 0.00404059 0.00372 0.00284578 0.00286071 
0.00281143 0.00279509 0.00278107 0.00417896 0.00407874 0.00379373 0.00367628 0.00368936 0.00324091 
0.00340626 0.00315927 0.0032376 0.00326496 0.00326025 0.00317045 0.00278227 0.00272467 0.00278037 
0.00285302 0.00323759 0.00319434 0.00316082 0.00315128 0.039429 0.0448313 0.0454127 0.00490402 
0.00508103 0.00515591 0.00473656 0.0047957 0.0445026 0.0430161 0.0456857 0.00936746 0.00841082 
0.00843854 0.00943696 0.0440955 0.0466079 0.0476023 0.0477425 0.0469397 0.0465341 0.0429931 
0.0407712 0.0408872 0.0409376 0.0424256 0.0417096 0.0428105 0.0442082 0.0101636 0.0103681 
0.0085684 0.0409394 0.0413489 0.043215 0.0460266 0.0454389 0.0212786 0.0214743 0.0174544 
0.01515 0.0161053 0.0157529 0.019086 0.021997 0.00764175 0.00765242 0.0465442 0.0485709 
0.0475381 0.0463364 0.0467493 0.0464933 0.0451894 0.00449207 0.00467479 0.00466897 0.00425475 
0.0041286 0.00774623 0.0476863 0.0483377 0.0477139 0.0486753 0.0492877 0.00261601 0.00269659 
0.00265494 0.00271371 0.00267059 0.00275714 0.00273776 0.0026907 0.0026755 0.00250442 0.00250845 
0.0026869 0.00262108 0.00273437 0.00277452 0.00279441 0.0027685 0.0120784 0.01226 0.0125737 
0.0123663 0.0138111 0.0151833 0.0145641 0.0134432 0.0219828 0.0201126 0.0194539 0.0206079 
0.0230515 0.016746 0.0160942 0.017161 0.00317991 0.00322727 0.00320028 0.00318369 0.0032891 
0.00321111 0.0159985 0.0149958 0.00321074 0.00318489 0.00311114 0.0030608 0.00307976 0.00276197 
0.00277671 0.00286294 0.00285142 0.00282103 0.0251498 0.0242262 0.00284534 0.00273442 0.00699039 
0.00644027 0.00583018 0.00598256 0.00412841 0.00424689 0.00458511 0.00431966 0.00627533 0.00697407 
0.0135988 0.0154192 0.0163242 0.0146629 0.007467 0.0063304 0.00531568 0.00576734 0.0053993 
0.00513748 0.00430725 0.00409042 0.0348845 0.0352651 0.0310035 0.0317626 0.0404408 0.0403284 
0.0430166 0.0364334 0.0380013 0.0247564 0.0249817 0.0220608 0.0221875 0.0146712 0.0155257 
0.0151789 0.0145145 0.00329475 0.00327017 0.0172752 0.017771 0.00393916 0.00393077 0.00378594 
0.00376247 0.00336763 0.0272748 0.0259344 0.0225187 0.0224258 0.0191628 0.019741 0.0316999 
0.0344298 0.0284464 0.0272019 0.00820416 0.00790121 0.00871982 0.0383729 0.0394544 0.0338047 
0.0348535 0.00462635 0.00481823 0.00512363 0.00482997 0.028857 0.0294728 0.00506742 0.00462664 
0.00473255 0.0407477 0.0436679 0.0439491 0.035077 0.0325255 0.0291769 0.00526706 0.005406 
0.00589732 0.00561292 0.0448589 0.0441962 0.00522477 0.0044485 0.0459887 0.0264826 0.00971384 
0.00991308 0.00423 0.00475115 0.0046974 0.00412367 0.0522146 0.0520934 0.0508394 0.0512704 
0.0511457 0.0494189 0.0495505 0.040783 0.0397798 0.0379078 0.0377541 0.0387958 0.0433815 
0.044314 0.0454118 0.0456032 0.0488206 0.0488207 0.0403773 0.0382764 0.0370021 0.0474289 
0.0522005 0.0513986 0.048679 0.0448992 0.0465885 0.0493797 0.00287222 0.00274167 0.00326585 
0.0033258 0.0370235 0.0411051 0.0371701 0.0374152 0.0363061 0.0360788 0.0028981 0.00283551 
0.00300907 0.00264003 0.0373809 0.0433973 0.0357247 0.047888 0.0386301 0.0353633 0.0344254 
0.00279983 0.00279087 0.00248121 0.0386176 0.0363716 0.0452455 0.045064 0.0463081 0.045829 
0.0463857 0.0472316 0.0454561 0.0451429 0.0431603 0.0436357 0.0447078 0.0451618 0.0418337 
0.0422634 0.0440772 0.0435437 0.0485617 0.0506506 0.0506999 0.00346211 0.0423292 0.044855 
0.0464117 0.0462636 0.045347 0.0430076 0.00304991 0.00292222 0.00301853 0.00252819 0.00252114 
0.00256984 0.00224327 0.0022836 0.0468698 0.0487604 0.0474983 0.0451888 0.0275188 0.0294564 
0.0332454 0.0296178 0.0502779 0.0497084 0.0410876 0.0408032 0.0444755 0.0454052 0.0457987 
0.0423202 0.0406138 0.00216588 0.00228211 0.00233121 0.00229472 0.00224555 0.00244813 0.00245688 
0.00258279 0.00250008 0.00213926 0.00209258 0.0020426 0.00207861 0.00202766 0.0021631 0.00222723 
0.00216354 0.0139557 0.0151268 0.0163453 0.0151025 0.0126883 0.00385636 0.00225276 0.00300951 
0.012007 0.0155911 0.0166233 0.0155245 0.013641 0.0151442 0.0115081 0.0110857 0.0117154 
0.0124852 0.0161684 0.0146003 0.0158769 0.0142501 0.0141895 0.015592 0.0159354 0.0202401 
0.00555034 0.0150647 0.013361 0.010467 0.0106943 0.0112387 0.0109117 0.0106433 0.011329 
0.01287 0.0128501 0.00186477 0.00190055 0.00187971 0.00191531 0.00191908 0.00194706 0.00187016 
0.0018711 0.00186904 0.00184495 0.0019663 0.00192496 0.00186584 0.00185783 0.0018565 0.00180924 
0.00186383 0.00185576 0.00182984 0.00180385 0.00190758 0.00180145 0.00185068 0.00185372 0.00179306 
0.00181927 0.0189811 0.015182 0.017081 0.0226541 0.0274847 0.0344407 0.0147626 0.0166094 
0.0168085 0.00247318 0.0040752 0.00187119 0.0185439 0.0171722 0.0148552 0.0143178 0.0161664 
0.0173553 0.0156912 0.0143901 0.00291353 0.00390568 0.0108986 0.00913197 0.00882954 0.00841217 
0.0079059 0.010152 0.0108143 0.00981038 0.00939476 0.00954959 0.00949278 0.0218065 0.00182995 
0.00182387 0.00184737 0.00189131 0.0018574 0.00186307 0.00177463 0.00180077 0.00951598 0.00946024 
0.00966827 0.00989661 0.0128546 0.0104737 0.0108996 0.00929134 0.00925698 0.00919024 0.00904517 
0.00889401 0.00878239 0.00901185 0.00844835 0.00863786 0.00920537 0.00991053 0.00958814 0.0102293 
0.00933277 0.00875844 0.00907142 0.0138348 0.0137431 0.0174802 0.0192733 0.0194467 0.0180904 
0.0171963 0.00223222 0.00220838 0.00224447 0.0260099 0.0266378 0.0209125 0.020205 0.0220315 
0.0206946 0.0135334 0.0143696 0.0177053 0.00201939 0.00211724 0.00203838 0.00203239 0.00181887 
0.00185514 0.0018083 0.00192682 0.00193282 0.00187175 0.00189482 0.00194551 0.001879 0.001855 
0.00178779 0.00181219 0.00209047 0.00203915 0.0018206 0.00183054 0.00182647 0.024398 0.021394 
0.0230867 0.0255215 0.0365376 0.0360126 0.0341254 0.0345154 0.037666 0.0358425 0.030959 
0.0312282 0.00265957 0.00273694 0.0026958 0.00259444 0.00263679 0.00275935 0.00269388 0.00269411 
0.00272214 0.00262479 0.034591 0.0364078 0.0365685 0.0348493 0.0349083 0.0356378 0.0387408 
0.0371697 0.0364438 0.0378064 0.00278935 0.00275278 0.00277868 0.00282119 0.0027689 0.00266314 
0.00271546 0.0388056 0.035455 0.0380388 0.0386713 0.00301312 0.00291577 0.00705645 0.00784952 
0.0103462 0.0103603 0.0441723 0.0461761 0.0468084 0.0453138 0.00378452 0.00378262 0.00376871 
0.00367234 0.00375066 0.00347185 0.00351745 0.00372718 0.0035836 0.00350422 0.00349471 0.00380669 
0.00380378 0.00379668 0.0038711 0.00246609 0.00239028 0.00226083 0.00229672 0.00235164 0.00233535 
0.00229203 0.00234072 0.00245264 0.00243838 0.00249219 0.0484725 0.0455182 0.0513808 0.0500101 
0.0493125 0.0503045 0.0531854 0.0474763 0.0480793 0.00241641 0.00245187 0.00242793 0.00238651 
0.0432808 0.0439224 0.0443085 0.0455898 0.0471578 0.046469 0.0430437 0.00754837 0.00606189 
0.0059599 0.0060277 0.00823053 0.0192119 0.0221723 0.0334763 0.0217788 0.0405583 0.041527 
0.0403124 0.0397635 0.00189373 0.00189406 0.00192189 0.00188768 0.0018497 0.00190289 0.00257693 
0.00256652 0.00261166 0.00269374 0.00269978 0.0456774 0.0461756 0.0441647 0.0486467 0.0505633 
0.0514394 0.00698679 0.00984089 0.0094645 0.00654266 0.00616489 0.0398502 0.0385998 0.0394509 
0.0395635 0.00305994 0.00307518 0.00310402 0.00308102 0.0308251 0.0333327 0.0242076 0.0188601 
0.0185287 0.0151783 0.0237821 0.0162138 0.0180692 0.0241915 0.00747732 0.00792586 0.00716356 
0.00669957 0.00839344 0.00742684 0.031237 0.0313951 0.0317874 0.0318003 0.0316703 0.00227577 
0.0022921 0.00230487 0.00226842 0.00223074 0.00224789 0.00206964 0.00212285 0.00211409 0.00220596 
0.00309716 0.00313989 0.0030665 0.00300448 0.00302398 0.00291052 0.00289707 0.00288074 0.00287408 
0.0106198 0.01069 0.0390695 0.0380417 0.0370372 0.0370557 0.0377442 0.0348081 0.0349468 
0.040728 0.0158783 0.0243783 0.0186099 0.0466096 0.045974 0.04731 0.044493 0.0483442 
0.0490217 0.0459198 0.00911648 0.00821975 0.00795494 0.00888985 0.00700673 0.00729345 0.00719618 
0.019535 0.0221051 0.0206185 0.017963 0.0162578 0.0155605 0.0166302 0.0124086 0.0118551 
0.0482846 0.0467624 0.0509155 0.0492554 0.0415389 0.0423981 0.04515 0.0449462 0.0415528 
0.0499293 0.0534815 0.0528921 0.0518103 0.051676 0.0530505 0.0501842 0.0506916 0.0535898 
0.0462846 0.04758 0.0465372 0.0478801 0.048202 0.00309824 0.00304066 0.00255683 0.0025442 
0.0024727 0.00249572 0.0493863 0.0469786 0.0457916 0.047755 0.00213131 0.00199122 0.00193709 
0.00196556 0.00187291 0.00196248 0.00181666 0.00200951 0.00211844 0.00214818 0.00203262 0.00202312 
0.00207869 0.00207016 0.0134331 0.0127283 0.0131284 0.0137106 0.0100526 0.0103345 0.0100997 
0.0100951 0.0113294 0.0112966 0.0112546 0.0115854 0.0117769 0.0297495 0.0267585 0.0277535 
0.0283424 0.02827 0.0283915 0.0248767 0.0225519 0.0294467 0.00398097 0.00415675 0.00434457 
0.00416162 0.00388463 0.00388415 0.00398022 0.0282653 0.0340041 0.028902 0.0251049 0.0248832 
0.0277585 0.0282842 0.0390205 0.0438745 0.0469599 0.0442338 0.0454571 0.0515024 0.0527792 
0.0367107 0.0396793 0.0343308 0.0311117 0.028297 0.0284741 0.00371353 0.00378641 0.00375588 
0.00360714 0.00352359 0.00358715 0.00368269 0.00341293 0.00352692 0.00351515 0.00346375 0.0470242 
0.0458276 0.05338 0.0512933 0.0518652 0.0539423 0.0451589 0.0456903 0.0446274 0.0474885 
0.0471117 0.00264597 0.0026034 0.00256424 0.00272645 0.0461535 0.0478284 0.0433167 0.0440644 
0.0393499 0.0395499 0.0411145 0.0455967 0.0513671 0.0506838 0.0489154 0.0483745 0.0522085 
0.0477386 0.0482527 0.0462563 0.0461623 0.0277353 0.00888661 0.00620702 0.00654284 0.00426857 
0.00423154 0.00408519 0.00419177 0.0323552 0.032935 0.00362423 0.00365215 0.00367462 0.00379836 
0.00310776 0.00367116 0.00368984 0.00358037 0.00347607 0.00344598 0.00322372 0.00313005 0.00321208 
0.00339609 0.00339043 0.00345251 0.00336605 0.00333571 0.00377108 0.00375079 0.00360785 0.00344672 
0.0037346 0.00359429 0.0146867 0.0146262 0.0121826 0.0119555 0.014958 0.0123601 0.0324469 
0.0322583 0.0345067 0.0104181 0.0125122 0.0129465 0.010777 0.0119966 0.0175059 0.032302 
0.0327966 0.0322612 0.0321575 0.0317804 0.033227 0.036906 0.037222 0.0368814 0.0364559 
0.0352524 0.034032 0.0348227 0.0378653 0.0368883 0.0323587 0.0340726 0.0331015 0.032923 
0.0339995 0.0343953 0.00235415 0.00229638 0.00228681 0.00232777 0.00200884 0.00312792 0.00317603 
0.00323491 0.00316747 0.00281744 0.0028593 0.00284897 0.00281703 0.00290409 0.00291357 0.00289766 
0.0390122 0.0463006 0.00635296 0.00683996 0.00701297 0.00631008 0.00712228 0.00757467 0.00751867 
0.0064963 0.0395819 0.0396267 0.0383094 0.0394605 0.0107201 0.00933767 0.00852878 0.0466694 
0.0449902 0.0473075 0.0267939 0.0391864 0.0287976 0.00722318 0.00777912 0.00764162 0.00679112 
0.00659878 0.00455301 0.00424358 0.00432929 0.0045301 0.0481207 0.0480938 0.0475614 0.046733 
0.0469634 0.00680214 0.00645982 0.0187792 0.0190311 0.0212824 0.0205284 0.0242487 0.0239377 
0.0223543 0.0235256 0.0218074 0.00318245 0.00320516 0.00317811 0.00318376 0.00317525 0.00325385 